* GENERATED BY CHARMM-GUI (HTTP://WWW.CHARMM-GUI.ORG) V3.1 ON OCT, 03. 2020. JOB
* REPLACE PACKED BIG SPHERES BY LIPID MOLECULES OF RANDOM CONFORMATION
*  DATE:    10/ 3/20     19:14:37      CREATED BY USER: apache
*
     24916  EXT
         1         1  QMPE      N              -0.4594730304        5.4029072070       19.5966173574  MEMB      1               0.0000000000
         2         1  QMPE      HN1             0.4185720533        5.2277716418       20.1257338024  MEMB      1               0.0000000000
         3         1  QMPE      HN2            -0.3869146406        6.3936458337       19.2887663847  MEMB      1               0.0000000000
         4         1  QMPE      HN3            -1.3099300656        5.0676440677       20.0925222307  MEMB      1               0.0000000000
         5         1  QMPE      C12            -0.3872804623        4.5431812821       18.3516930911  MEMB      1               0.0000000000
         6         1  QMPE      H12A            0.5449392398        4.8550409526       17.8339759280  MEMB      1               0.0000000000
         7         1  QMPE      H12B           -1.2021158759        4.8183502692       17.6483820748  MEMB      1               0.0000000000
         8         1  QMPE      C11            -0.2233722002        3.0613624520       18.6949043694  MEMB      1               0.0000000000
         9         1  QMPE      H11A            0.7735088550        2.9411189365       19.1703941956  MEMB      1               0.0000000000
        10         1  QMPE      H11B           -0.2539699314        2.4868903257       17.7444483329  MEMB      1               0.0000000000
        11         1  QMPE      P              -2.5129883011        1.9339353113       19.1139103756  MEMB      1               0.0000000000
        12         1  QMPE      O13            -3.0795754278        2.8600097090       18.0899472088  MEMB      1               0.0000000000
        13         1  QMPE      O14            -3.3739178339        1.4386170535       20.2173563420  MEMB      1               0.0000000000
        14         1  QMPE      O11            -2.0624831792        0.6023440025       18.3160808014  MEMB      1               0.0000000000
        15         1  QMPE      O12            -1.1531682712        2.4969737502       19.6194904545  MEMB      1               0.0000000000
        16         1  QMPE      C1             -1.3703017846       -0.4004780416       19.0145856714  MEMB      1               0.0000000000
        17         1  QMPE      HA             -2.1360139133       -0.9732018808       19.5802653656  MEMB      1               0.0000000000
        18         1  QMPE      HB             -0.6506575963        0.0249918183       19.7463019007  MEMB      1               0.0000000000
        19         1  QMPE      C2             -0.5358754131       -1.3025495078       18.0323733208  MEMB      1               0.0000000000
        20         1  QMPE      HS             -0.1384228203       -2.0946224902       18.7024280993  MEMB      1               0.0000000000
        21         1  QMPE      O21             0.4826878270       -0.4413488399       17.6167248024  MEMB      1               0.0000000000
        22         1  QMPE      C21             1.7365452336       -0.9516277973       17.3504186094  MEMB      1               0.0000000000
        23         1  QMPE      O22             2.0501215972       -2.1499044200       17.4805913245  MEMB      1               0.0000000000
        24         1  QMPE      C22             2.6739054126        0.1811984316       16.8662031601  MEMB      1               0.0000000000
        25         1  QMPE      H2R             2.9771434548        0.7145254748       17.7924482426  MEMB      1               0.0000000000
        26         1  QMPE      H2S             2.0814682223        0.9228611002       16.2889027323  MEMB      1               0.0000000000
        27         1  QMPE      C3             -1.3452914082       -1.9487354069       16.9091496185  MEMB      1               0.0000000000
        28         1  QMPE      HX             -2.0498852254       -2.6482513566       17.4076933477  MEMB      1               0.0000000000
        29         1  QMPE      HY             -0.6522737504       -2.5912469456       16.3250034395  MEMB      1               0.0000000000
        30         1  QMPE      O31            -2.1088447454       -0.9824052042       16.2637676978  MEMB      1               0.0000000000
        31         1  QMPE      C31            -1.4737523518       -0.4821319690       15.1789476828  MEMB      1               0.0000000000
        32         1  QMPE      O32            -0.5469526148       -1.0526868726       14.6209578961  MEMB      1               0.0000000000
        33         1  QMPE      C32            -2.0718042737        0.7446413963       14.7664859527  MEMB      1               0.0000000000
        34         1  QMPE      H2X            -3.1667838139        0.7026106625       14.5832531236  MEMB      1               0.0000000000
        35         1  QMPE      H2Y            -1.8004453041        1.5570671682       15.4740518995  MEMB      1               0.0000000000
        36         1  QMPE      C23             3.8586710304       -0.3754207253       16.0576102823  MEMB      1               0.0000000000
        37         1  QMPE      H3R             4.4681580117       -1.0478614583       16.6984459032  MEMB      1               0.0000000000
        38         1  QMPE      H3S             4.5719572811        0.4048010548       15.7158532737  MEMB      1               0.0000000000
        39         1  QMPE      C24             3.5252062275       -1.0019064193       14.7880187867  MEMB      1               0.0000000000
        40         1  QMPE      H4R             2.8184301280       -1.8463643606       14.9352585551  MEMB      1               0.0000000000
        41         1  QMPE      H4S             4.4721530704       -1.4835685200       14.4630359215  MEMB      1               0.0000000000
        42         1  QMPE      C25             2.9553053096       -0.0926033005       13.7167252717  MEMB      1               0.0000000000
        43         1  QMPE      H5R             3.7408740395        0.6460593663       13.4491808191  MEMB      1               0.0000000000
        44         1  QMPE      H5S             2.1169782014        0.5414699955       14.0765583248  MEMB      1               0.0000000000
        45         1  QMPE      C26             2.4313031988       -0.8458773073       12.5695782823  MEMB      1               0.0000000000
        46         1  QMPE      H6R             1.6473715542       -1.5299044556       12.9592951806  MEMB      1               0.0000000000
        47         1  QMPE      H6S             3.1603079011       -1.5968275391       12.1968236551  MEMB      1               0.0000000000
        48         1  QMPE      C27             1.8409682531       -0.0438817343       11.3874217156  MEMB      1               0.0000000000
        49         1  QMPE      H7R             2.4926355924        0.7898640005       11.0490151576  MEMB      1               0.0000000000
        50         1  QMPE      H7S             0.9542248329        0.5301905836       11.7315834296  MEMB      1               0.0000000000
        51         1  QMPE      C28             1.4003169706       -0.9887638333       10.2153492419  MEMB      1               0.0000000000
        52         1  QMPE      H8R             1.5708126023       -2.0523223582       10.4875545892  MEMB      1               0.0000000000
        53         1  QMPE      H8S             2.0770677018       -0.7853566492        9.3580538935  MEMB      1               0.0000000000
        54         1  QMPE      C29            -0.0659342561       -0.6784386672        9.8142903595  MEMB      1               0.0000000000
        55         1  QMPE      H9R            -0.3777855252        0.3877007849        9.7938795748  MEMB      1               0.0000000000
        56         1  QMPE      C217           -1.1508788430       -1.6473021993       10.3969652062  MEMB      1               0.0000000000
        57         1  QMPE      H17R           -0.6863341320       -2.5315992839       10.8154218197  MEMB      1               0.0000000000
        58         1  QMPE      H17S           -2.0952755334       -1.1790878017       10.6455185314  MEMB      1               0.0000000000
        59         1  QMPE      C210           -0.8963379465       -1.5810792503        8.8652595708  MEMB      1               0.0000000000
        60         1  QMPE      H10R           -1.4742288628       -0.9685531925        8.1405699955  MEMB      1               0.0000000000
        61         1  QMPE      C211           -0.4138202332       -2.8848831159        8.2520514045  MEMB      1               0.0000000000
        62         1  QMPE      H11R            0.1365944095       -3.5698518859        8.9318916106  MEMB      1               0.0000000000
        63         1  QMPE      H11S           -1.3407090006       -3.4578455390        8.0354598104  MEMB      1               0.0000000000
        64         1  QMPE      C212            0.5202902914       -2.7350841423        7.0612057466  MEMB      1               0.0000000000
        65         1  QMPE      H12R            1.3162422307       -2.0217026757        7.3643031800  MEMB      1               0.0000000000
        66         1  QMPE      H12S           -0.1292533257       -2.1339844471        6.3895711224  MEMB      1               0.0000000000
        67         1  QMPE      C213            0.9366416378       -4.0643448697        6.3493762395  MEMB      1               0.0000000000
        68         1  QMPE      H13R            1.4652995170       -4.5364686726        7.2049117564  MEMB      1               0.0000000000
        69         1  QMPE      H13S            1.7195512976       -3.9646942738        5.5674276888  MEMB      1               0.0000000000
        70         1  QMPE      C214           -0.3386767683       -4.9167160058        5.8169013723  MEMB      1               0.0000000000
        71         1  QMPE      H14R           -1.1114492006       -4.8502903278        6.6123460686  MEMB      1               0.0000000000
        72         1  QMPE      H14S            0.0262515532       -5.9596908377        5.7013521640  MEMB      1               0.0000000000
        73         1  QMPE      C215           -1.0008881652       -4.2568163806        4.6094096512  MEMB      1               0.0000000000
        74         1  QMPE      H15R           -1.2119156930       -3.1780924211        4.7710950843  MEMB      1               0.0000000000
        75         1  QMPE      H15S           -1.9716682193       -4.7503398222        4.3895417632  MEMB      1               0.0000000000
        76         1  QMPE      C216           -0.0700587765       -4.2907117850        3.3746858991  MEMB      1               0.0000000000
        77         1  QMPE      H16R           -0.6653361452       -3.9580413802        2.4975906541  MEMB      1               0.0000000000
        78         1  QMPE      H16S            0.2464946613       -5.3389152731        3.1865789019  MEMB      1               0.0000000000
        79         1  QMPE      H16T            0.8230124954       -3.6350947182        3.4578170464  MEMB      1               0.0000000000
        80         1  QMPE      C33            -1.3246796808        1.2179970814       13.4855964936  MEMB      1               0.0000000000
        81         1  QMPE      H3X            -1.3876292350        0.4705368629       12.6660471088  MEMB      1               0.0000000000
        82         1  QMPE      H3Y            -0.2520726885        1.2913828821       13.7656852501  MEMB      1               0.0000000000
        83         1  QMPE      C34            -1.8014163375        2.5325994576       12.8436000752  MEMB      1               0.0000000000
        84         1  QMPE      H4X            -1.7441992869        3.4221641842       13.5067147824  MEMB      1               0.0000000000
        85         1  QMPE      H4Y            -2.8191827427        2.3323986456       12.4456145605  MEMB      1               0.0000000000
        86         1  QMPE      C35            -0.8793456800        3.0330724561       11.6868198798  MEMB      1               0.0000000000
        87         1  QMPE      H5X            -1.4525673700        3.8681029517       11.2302431311  MEMB      1               0.0000000000
        88         1  QMPE      H5Y            -0.8211679590        2.2678604406       10.8834604092  MEMB      1               0.0000000000
        89         1  QMPE      C36             0.5416277366        3.5422187125       12.0734922046  MEMB      1               0.0000000000
        90         1  QMPE      H6X             1.0664693664        2.5630143190       12.0780742384  MEMB      1               0.0000000000
        91         1  QMPE      H6Y             0.3674363696        4.0792521115       13.0303482323  MEMB      1               0.0000000000
        92         1  QMPE      C37             1.2285142593        4.4693384842       11.1082943928  MEMB      1               0.0000000000
        93         1  QMPE      H7X             0.7173925647        5.4531051353       11.0356358181  MEMB      1               0.0000000000
        94         1  QMPE      H7Y             2.2308363522        4.5183009481       11.5850269169  MEMB      1               0.0000000000
        95         1  QMPE      C38             1.3007102061        4.0178681243        9.6742619693  MEMB      1               0.0000000000
        96         1  QMPE      H8X             0.4273550875        3.3617094397        9.4717107199  MEMB      1               0.0000000000
        97         1  QMPE      H8Y             1.1252255271        4.8450104692        8.9535944615  MEMB      1               0.0000000000
        98         1  QMPE      C39             2.5524265296        3.1008868875        9.3890549213  MEMB      1               0.0000000000
        99         1  QMPE      H9X             2.8066861726        2.4355863659       10.2417262434  MEMB      1               0.0000000000
       100         1  QMPE      H9Y             3.4168687617        3.7946701249        9.3133910737  MEMB      1               0.0000000000
       101         1  QMPE      C310            2.3407166925        2.0923075142        8.2293285405  MEMB      1               0.0000000000
       102         1  QMPE      H10X            1.4112444493        1.5073462886        8.3973238975  MEMB      1               0.0000000000
       103         1  QMPE      H10Y            3.1806286837        1.3659355855        8.1939400257  MEMB      1               0.0000000000
       104         1  QMPE      C311            2.3148205813        2.8761150479        6.8977918177  MEMB      1               0.0000000000
       105         1  QMPE      H11X            3.2784135118        3.4018501777        6.7262917803  MEMB      1               0.0000000000
       106         1  QMPE      H11Y            1.5899087952        3.7051500450        7.0445051645  MEMB      1               0.0000000000
       107         1  QMPE      C312            1.8987780340        1.9535915925        5.7287048499  MEMB      1               0.0000000000
       108         1  QMPE      H12X            1.9111016035        2.3906612039        4.7073631149  MEMB      1               0.0000000000
       109         1  QMPE      H12Y            0.8645211378        1.6511446990        5.9991855599  MEMB      1               0.0000000000
       110         1  QMPE      C313            2.6498547757        0.6534603199        5.6443160871  MEMB      1               0.0000000000
       111         1  QMPE      H13X            3.7282309843        0.8284960846        5.4423539326  MEMB      1               0.0000000000
       112         1  QMPE      H13Y            2.6460696122        0.1582450473        6.6388350314  MEMB      1               0.0000000000
       113         1  QMPE      C314            1.9728097288       -0.3801391449        4.6485137826  MEMB      1               0.0000000000
       114         1  QMPE      H14X            0.8937474923       -0.1168477611        4.6235441517  MEMB      1               0.0000000000
       115         1  QMPE      H14Y            2.1914867685       -1.3980063695        5.0363898398  MEMB      1               0.0000000000
       116         1  QMPE      C315            2.4125600328       -0.2845626984        3.1802356464  MEMB      1               0.0000000000
       117         1  QMPE      H15X            2.1524394668       -1.1304278205        2.5085422745  MEMB      1               0.0000000000
       118         1  QMPE      H15Y            2.0232836361        0.5911481991        2.6181717218  MEMB      1               0.0000000000
       119         1  QMPE      H15Z            3.5227281224       -0.2938308661        3.1382622078  MEMB      1               0.0000000000
       120         2  PMPE      N              -2.9933176288       -3.1706349601       19.4723456688  MEMB      2               0.0000000000
       121         2  PMPE      HN1            -3.0171119991       -3.9253251459       20.1875216100  MEMB      2               0.0000000000
       122         2  PMPE      HN2            -2.2153340296       -2.5094147659       19.6701570368  MEMB      2               0.0000000000
       123         2  PMPE      HN3            -3.8971618576       -2.6576790501       19.4330841760  MEMB      2               0.0000000000
       124         2  PMPE      C12            -2.7029152254       -3.8100639377       18.1499090518  MEMB      2               0.0000000000
       125         2  PMPE      H12A           -2.8213997662       -2.9840706590       17.4164123714  MEMB      2               0.0000000000
       126         2  PMPE      H12B           -3.5055832878       -4.5571894303       17.9714482695  MEMB      2               0.0000000000
       127         2  PMPE      C11            -1.3546090061       -4.5875077629       18.3147598360  MEMB      2               0.0000000000
       128         2  PMPE      H11A           -0.5528804870       -3.8460383655       18.5191503780  MEMB      2               0.0000000000
       129         2  PMPE      H11B           -1.2303609367       -5.0681935456       17.3208661392  MEMB      2               0.0000000000
       130         2  PMPE      P              -0.1144108936       -6.5277698075       19.2620204673  MEMB      2               0.0000000000
       131         2  PMPE      O13            -0.2104489276       -7.6478802203       20.2373274082  MEMB      2               0.0000000000
       132         2  PMPE      O14             1.0256915858       -5.5795970630       19.4186971743  MEMB      2               0.0000000000
       133         2  PMPE      O11            -0.0912936699       -7.0893587122       17.7983950043  MEMB      2               0.0000000000
       134         2  PMPE      O12            -1.4095242951       -5.5747565000       19.3465453901  MEMB      2               0.0000000000
       135         2  PMPE      C1             -0.9762639075       -8.2092837488       17.5673516242  MEMB      2               0.0000000000
       136         2  PMPE      HA             -1.9720893893       -7.8219701671       17.2629821079  MEMB      2               0.0000000000
       137         2  PMPE      HB             -1.1272584350       -8.9443044441       18.3866597845  MEMB      2               0.0000000000
       138         2  PMPE      C2             -0.3242154011       -9.2248607854       16.4903991222  MEMB      2               0.0000000000
       139         2  PMPE      HS              0.0481125173      -10.1416296018       16.9955996729  MEMB      2               0.0000000000
       140         2  PMPE      O21             0.5588076925       -8.5145933463       15.6459837357  MEMB      2               0.0000000000
       141         2  PMPE      C21             1.7402992370       -9.0729410592       15.3141282656  MEMB      2               0.0000000000
       142         2  PMPE      O22             2.2147858793      -10.1267016775       15.7632028915  MEMB      2               0.0000000000
       143         2  PMPE      C22             2.4285548284       -8.1190512133       14.2826742001  MEMB      2               0.0000000000
       144         2  PMPE      H2R             1.6516439818       -7.6649012150       13.6311545157  MEMB      2               0.0000000000
       145         2  PMPE      H2S             2.9330052719       -8.8126048101       13.5763922574  MEMB      2               0.0000000000
       146         2  PMPE      C3             -1.4261322530       -9.8593852442       15.6201977704  MEMB      2               0.0000000000
       147         2  PMPE      HX             -2.0644372373      -10.4310243376       16.3273865679  MEMB      2               0.0000000000
       148         2  PMPE      HY             -0.8962252138      -10.4492178975       14.8419840268  MEMB      2               0.0000000000
       149         2  PMPE      O31            -2.1822863210       -8.8150609001       14.9882040915  MEMB      2               0.0000000000
       150         2  PMPE      C31            -3.2943095743       -9.0447674256       14.2812250064  MEMB      2               0.0000000000
       151         2  PMPE      O32            -3.8198149765      -10.1233902940       14.1552774251  MEMB      2               0.0000000000
       152         2  PMPE      C32            -3.8353681155       -7.7406958296       13.6788880336  MEMB      2               0.0000000000
       153         2  PMPE      H2X            -2.9873976085       -7.0443450841       13.5046400238  MEMB      2               0.0000000000
       154         2  PMPE      H2Y            -4.5679357796       -7.3112321978       14.3952865354  MEMB      2               0.0000000000
       155         2  PMPE      C23             3.3717922125       -7.1305671403       14.9298892128  MEMB      2               0.0000000000
       156         2  PMPE      H3R             3.7088525161       -7.5471741883       15.9031057827  MEMB      2               0.0000000000
       157         2  PMPE      H3S             2.8741099236       -6.1575738464       15.1296818490  MEMB      2               0.0000000000
       158         2  PMPE      C24             4.5634780696       -6.7541867354       14.0717829362  MEMB      2               0.0000000000
       159         2  PMPE      H4R             5.1302967612       -7.6354727498       13.7024965852  MEMB      2               0.0000000000
       160         2  PMPE      H4S             5.2131369871       -6.2728181514       14.8337203252  MEMB      2               0.0000000000
       161         2  PMPE      C25             4.4670334667       -5.8519113593       12.8366623531  MEMB      2               0.0000000000
       162         2  PMPE      H5R             3.8355650156       -6.2690356172       12.0232891779  MEMB      2               0.0000000000
       163         2  PMPE      H5S             5.4785194459       -5.8513867221       12.3770795917  MEMB      2               0.0000000000
       164         2  PMPE      C26             3.9438360786       -4.4579978086       13.0413641972  MEMB      2               0.0000000000
       165         2  PMPE      H6R             4.6970643866       -3.9742502341       13.6993583101  MEMB      2               0.0000000000
       166         2  PMPE      H6S             2.8653561925       -4.3788274181       13.2961857339  MEMB      2               0.0000000000
       167         2  PMPE      C27             4.0992533991       -3.6384747463       11.8507318739  MEMB      2               0.0000000000
       168         2  PMPE      H7R             5.1005602714       -3.8365598957       11.4120198117  MEMB      2               0.0000000000
       169         2  PMPE      H7S             3.8515827419       -2.6307052896       12.2474436457  MEMB      2               0.0000000000
       170         2  PMPE      C28             3.2413072543       -3.9513006414       10.6415562680  MEMB      2               0.0000000000
       171         2  PMPE      H8R             2.1934963627       -4.2254789991       10.8890212079  MEMB      2               0.0000000000
       172         2  PMPE      H8S             3.6290566190       -4.8131370213       10.0574247701  MEMB      2               0.0000000000
       173         2  PMPE      C29             3.2568168561       -2.7454810127        9.6838253654  MEMB      2               0.0000000000
       174         2  PMPE      H9R             4.2012441445       -2.1629283822        9.6289511824  MEMB      2               0.0000000000
       175         2  PMPE      C217            1.9828636836       -1.8974535918        9.9203744767  MEMB      2               0.0000000000
       176         2  PMPE      H17R            2.2949033974       -0.8606704242        9.9448853167  MEMB      2               0.0000000000
       177         2  PMPE      H17S            1.2154580269       -2.4137328666       10.4837866558  MEMB      2               0.0000000000
       178         2  PMPE      C210            2.2977722811       -2.4967331738        8.4982579584  MEMB      2               0.0000000000
       179         2  PMPE      H10R            2.6597214121       -1.7679068629        7.7418675738  MEMB      2               0.0000000000
       180         2  PMPE      C211            1.2429869349       -3.5193876403        7.9362216313  MEMB      2               0.0000000000
       181         2  PMPE      H11R            0.3462169970       -3.0203322366        7.5107003905  MEMB      2               0.0000000000
       182         2  PMPE      H11S            0.7322280120       -3.9691673156        8.8143697670  MEMB      2               0.0000000000
       183         2  PMPE      C212            1.8992192079       -4.6130752537        7.0950713156  MEMB      2               0.0000000000
       184         2  PMPE      H12R            1.2236630764       -5.4921052777        7.1675371068  MEMB      2               0.0000000000
       185         2  PMPE      H12S            2.8534704184       -4.9427426375        7.5588009621  MEMB      2               0.0000000000
       186         2  PMPE      C213            2.0321624383       -4.4197042260        5.6248578906  MEMB      2               0.0000000000
       187         2  PMPE      H13R            2.8437730220       -3.6819474871        5.4478718514  MEMB      2               0.0000000000
       188         2  PMPE      H13S            1.1494801159       -3.8282998762        5.3001523198  MEMB      2               0.0000000000
       189         2  PMPE      C214            2.2354637520       -5.7170353003        4.8420082793  MEMB      2               0.0000000000
       190         2  PMPE      H14R            1.6710563951       -6.5047123386        5.3854507832  MEMB      2               0.0000000000
       191         2  PMPE      H14S            3.3321423560       -5.8790884239        4.9151930894  MEMB      2               0.0000000000
       192         2  PMPE      C215            1.7887703996       -5.7513425004        3.3425076259  MEMB      2               0.0000000000
       193         2  PMPE      H15R            2.0629028488       -4.7877727493        2.8621902035  MEMB      2               0.0000000000
       194         2  PMPE      H15S            0.6865737166       -5.7595385168        3.2031651906  MEMB      2               0.0000000000
       195         2  PMPE      C216            2.5999573690       -6.8883602121        2.6870623336  MEMB      2               0.0000000000
       196         2  PMPE      H16R            2.0692876469       -7.0379265459        1.7225199992  MEMB      2               0.0000000000
       197         2  PMPE      H16S            3.6930161437       -6.7234685889        2.5759130009  MEMB      2               0.0000000000
       198         2  PMPE      H16T            2.3346661826       -7.8023176442        3.2603193004  MEMB      2               0.0000000000
       199         2  PMPE      C33            -4.3871933814       -8.0148959299       12.2419862303  MEMB      2               0.0000000000
       200         2  PMPE      H3X            -4.8440779843       -7.1145380472       11.7783775396  MEMB      2               0.0000000000
       201         2  PMPE      H3Y            -5.1225527719       -8.8444417626       12.3156151649  MEMB      2               0.0000000000
       202         2  PMPE      C34            -3.3428568324       -8.5053755514       11.2261727887  MEMB      2               0.0000000000
       203         2  PMPE      H4X            -3.2250381165       -9.5993188984       11.3802097108  MEMB      2               0.0000000000
       204         2  PMPE      H4Y            -2.3704169479       -8.0057790001       11.4238712385  MEMB      2               0.0000000000
       205         2  PMPE      C35            -3.7899204995       -8.4642478806        9.7214582783  MEMB      2               0.0000000000
       206         2  PMPE      H5X            -4.8908770347       -8.3875008261        9.5936887890  MEMB      2               0.0000000000
       207         2  PMPE      H5Y            -3.4389918397       -9.4643546895        9.3883569486  MEMB      2               0.0000000000
       208         2  PMPE      C36            -3.1200621584       -7.4279644841        8.8787559290  MEMB      2               0.0000000000
       209         2  PMPE      H6X            -3.2044288594       -7.6220068327        7.7880900323  MEMB      2               0.0000000000
       210         2  PMPE      H6Y            -2.0299043313       -7.4431902215        9.0924026610  MEMB      2               0.0000000000
       211         2  PMPE      C37            -3.8919080135       -6.1300792688        8.9540414934  MEMB      2               0.0000000000
       212         2  PMPE      H7X            -3.9734254576       -5.8390101227       10.0231318748  MEMB      2               0.0000000000
       213         2  PMPE      H7Y            -4.9281704569       -6.3530936742        8.6212568718  MEMB      2               0.0000000000
       214         2  PMPE      C38            -3.3648588652       -4.9869262355        8.0539770490  MEMB      2               0.0000000000
       215         2  PMPE      H8X            -2.3706681696       -4.6833397766        8.4460752539  MEMB      2               0.0000000000
       216         2  PMPE      H8Y            -3.8460594536       -3.9937244945        8.1817152422  MEMB      2               0.0000000000
       217         2  PMPE      C39            -3.2106410756       -5.3559000235        6.5575095045  MEMB      2               0.0000000000
       218         2  PMPE      H9X            -4.1267025198       -5.8920930582        6.2294101592  MEMB      2               0.0000000000
       219         2  PMPE      H9Y            -2.4214986445       -6.1373354563        6.5880637137  MEMB      2               0.0000000000
       220         2  PMPE      C310           -2.7960343047       -4.1715410333        5.6580526735  MEMB      2               0.0000000000
       221         2  PMPE      H10X           -1.8163262057       -3.7383647367        5.9527573031  MEMB      2               0.0000000000
       222         2  PMPE      H10Y           -3.4869942160       -3.3519573964        5.9499049377  MEMB      2               0.0000000000
       223         2  PMPE      C311           -2.9726719075       -4.2308704097        4.1129706877  MEMB      2               0.0000000000
       224         2  PMPE      H11X           -2.9952985861       -3.1984521094        3.7031884264  MEMB      2               0.0000000000
       225         2  PMPE      H11Y           -3.8596401786       -4.8688364038        3.9114580721  MEMB      2               0.0000000000
       226         2  PMPE      C312           -1.8874326986       -4.9589495424        3.2561450959  MEMB      2               0.0000000000
       227         2  PMPE      H12X           -1.4882907656       -5.8065276896        3.8533199359  MEMB      2               0.0000000000
       228         2  PMPE      H12Y           -1.0733818990       -4.2230102231        3.0828368998  MEMB      2               0.0000000000
       229         2  PMPE      C313           -2.4754866584       -5.3238709068        1.8811079506  MEMB      2               0.0000000000
       230         2  PMPE      H13X           -2.8689900392       -4.4274506032        1.3558399533  MEMB      2               0.0000000000
       231         2  PMPE      H13Y           -3.3807070817       -5.9464685315        2.0462421763  MEMB      2               0.0000000000
       232         2  PMPE      C314           -1.4842541860       -6.0466362807        1.0315115899  MEMB      2               0.0000000000
       233         2  PMPE      H14X           -1.2399808104       -6.9914902732        1.5624555245  MEMB      2               0.0000000000
       234         2  PMPE      H14Y           -0.5407350855       -5.4830955332        0.8686759748  MEMB      2               0.0000000000
       235         2  PMPE      C315           -2.0416356984       -6.1928732921       -0.3488688565  MEMB      2               0.0000000000
       236         2  PMPE      H15X           -1.3607283046       -6.5542234848       -1.1489373827  MEMB      2               0.0000000000
       237         2  PMPE      H15Y           -2.3690924325       -5.1984936182       -0.7207590377  MEMB      2               0.0000000000
       238         2  PMPE      C316           -3.1636073156       -7.2214324572       -0.4408508939  MEMB      2               0.0000000000
       239         2  PMPE      H16X           -3.6715638505       -7.1195660021       -1.4236648738  MEMB      2               0.0000000000
       240         2  PMPE      H16Y           -3.9562337400       -7.0787041941        0.3244556545  MEMB      2               0.0000000000
       241         2  PMPE      H16Z           -2.8705717050       -8.2854455043       -0.3130717047  MEMB      2               0.0000000000
       242         3  PYPG      C13             4.1458237044       -1.8000374487       19.9353268075  MEMB      3               0.0000000000
       243         3  PYPG      H13A            3.1263039279       -1.4706809600       20.2293080600  MEMB      3               0.0000000000
       244         3  PYPG      H13B            4.1632029193       -2.0132276763       18.8451117393  MEMB      3               0.0000000000
       245         3  PYPG      OC3             4.5411775033       -3.0037935925       20.6209760665  MEMB      3               0.0000000000
       246         3  PYPG      HO3             3.8047817212       -3.5899692237       20.4319809692  MEMB      3               0.0000000000
       247         3  PYPG      C12             5.0583150452       -0.5812758524       20.2491285165  MEMB      3               0.0000000000
       248         3  PYPG      H12A            4.9460273098       -0.3543751141       21.3348018373  MEMB      3               0.0000000000
       249         3  PYPG      OC2             4.6225143184        0.5622201511       19.5125584204  MEMB      3               0.0000000000
       250         3  PYPG      HO2             5.3358812159        1.2167425693       19.6781631114  MEMB      3               0.0000000000
       251         3  PYPG      C11             6.6171015785       -0.6778525886       20.0291074901  MEMB      3               0.0000000000
       252         3  PYPG      H11A            7.0456345754       -1.3697285641       20.7854064747  MEMB      3               0.0000000000
       253         3  PYPG      H11B            6.9548495637        0.3612554599       20.2303580906  MEMB      3               0.0000000000
       254         3  PYPG      P               8.1133427964       -0.7269661228       17.9296327515  MEMB      3               0.0000000000
       255         3  PYPG      O13             9.2664132674       -1.0645186013       18.8534892655  MEMB      3               0.0000000000
       256         3  PYPG      O14             7.9129841846        0.7166732291       17.5537540110  MEMB      3               0.0000000000
       257         3  PYPG      O11             8.0706169164       -1.5850775364       16.6464473963  MEMB      3               0.0000000000
       258         3  PYPG      O12             6.8143515367       -1.1736957210       18.6695792735  MEMB      3               0.0000000000
       259         3  PYPG      C1              7.6721006266       -2.9431436489       16.7879682889  MEMB      3               0.0000000000
       260         3  PYPG      HA              6.5962723692       -3.0962636399       17.0192012060  MEMB      3               0.0000000000
       261         3  PYPG      HB              8.1425877512       -3.4327117287       17.6673350207  MEMB      3               0.0000000000
       262         3  PYPG      C2              7.7318559327       -3.5423117500       15.4300168852  MEMB      3               0.0000000000
       263         3  PYPG      HS              7.4128001943       -4.5975901474       15.5675374198  MEMB      3               0.0000000000
       264         3  PYPG      O21             9.0507016216       -3.4224317587       14.8837051165  MEMB      3               0.0000000000
       265         3  PYPG      C21             9.3382998200       -4.3005277837       13.9863604619  MEMB      3               0.0000000000
       266         3  PYPG      O22             8.6024572550       -5.1715936922       13.5376383707  MEMB      3               0.0000000000
       267         3  PYPG      C22            10.7698267087       -3.9256773527       13.3905232556  MEMB      3               0.0000000000
       268         3  PYPG      H2R            11.5048025101       -4.1830275098       14.1829263358  MEMB      3               0.0000000000
       269         3  PYPG      H2S            10.8063911027       -2.8417464378       13.1495299173  MEMB      3               0.0000000000
       270         3  PYPG      C3              6.7150661109       -2.9752295325       14.4110902024  MEMB      3               0.0000000000
       271         3  PYPG      HX              5.6528025049       -2.9401324429       14.7346412517  MEMB      3               0.0000000000
       272         3  PYPG      HY              6.7505011475       -3.6359142485       13.5185873501  MEMB      3               0.0000000000
       273         3  PYPG      O31             7.2085929856       -1.6719455003       14.0556990252  MEMB      3               0.0000000000
       274         3  PYPG      C31             6.8403964213       -1.1040298688       12.9196648681  MEMB      3               0.0000000000
       275         3  PYPG      O32             6.5292790749       -1.7444737056       11.9104009873  MEMB      3               0.0000000000
       276         3  PYPG      C32             6.8593332146        0.4436525232       13.1076091020  MEMB      3               0.0000000000
       277         3  PYPG      H2X             6.0207149910        0.9971053437       12.6335516905  MEMB      3               0.0000000000
       278         3  PYPG      H2Y             6.7905605372        0.6617590109       14.1948169876  MEMB      3               0.0000000000
       279         3  PYPG      C23            10.9931434645       -4.7875673991       12.1177161847  MEMB      3               0.0000000000
       280         3  PYPG      H3R            10.2256181411       -4.5179548279       11.3610562716  MEMB      3               0.0000000000
       281         3  PYPG      H3S            10.7914584266       -5.8669117543       12.2870089968  MEMB      3               0.0000000000
       282         3  PYPG      C24            12.4396283363       -4.6455300942       11.6146577017  MEMB      3               0.0000000000
       283         3  PYPG      H4R            12.9708433822       -5.3405490648       12.2995519483  MEMB      3               0.0000000000
       284         3  PYPG      H4S            12.7023946452       -3.5743748984       11.7484542860  MEMB      3               0.0000000000
       285         3  PYPG      C25            12.7936213611       -4.9070425985       10.1173715552  MEMB      3               0.0000000000
       286         3  PYPG      H5R            12.5135864179       -5.9814020324       10.0767125227  MEMB      3               0.0000000000
       287         3  PYPG      H5S            13.8742382636       -4.7569827275        9.9074433621  MEMB      3               0.0000000000
       288         3  PYPG      C26            12.0230248505       -4.0361175593        9.1189195841  MEMB      3               0.0000000000
       289         3  PYPG      H6R            12.0836941785       -2.9637187014        9.4028228024  MEMB      3               0.0000000000
       290         3  PYPG      H6S            10.9460176795       -4.2589546236        8.9616919501  MEMB      3               0.0000000000
       291         3  PYPG      C27            12.6655374814       -4.2195260944        7.7528643010  MEMB      3               0.0000000000
       292         3  PYPG      H7R            12.3114229367       -5.2294405795        7.4545421916  MEMB      3               0.0000000000
       293         3  PYPG      H7S            13.7702407889       -4.1448592568        7.6613442079  MEMB      3               0.0000000000
       294         3  PYPG      C28            12.1802446922       -3.2480218905        6.5736637018  MEMB      3               0.0000000000
       295         3  PYPG      H8R            12.6898369231       -2.2669197470        6.6835537302  MEMB      3               0.0000000000
       296         3  PYPG      H8S            11.0744042342       -3.1410769181        6.5745516501  MEMB      3               0.0000000000
       297         3  PYPG      C29            12.6158928208       -3.9135888700        5.2554053330  MEMB      3               0.0000000000
       298         3  PYPG      H9R            13.6184863063       -4.3425717056        5.3995592617  MEMB      3               0.0000000000
       299         3  PYPG      C210           12.0173533848       -3.9148145355        4.0104559018  MEMB      3               0.0000000000
       300         3  PYPG      H10R           12.4079549269       -4.5826944732        3.2285558619  MEMB      3               0.0000000000
       301         3  PYPG      C211           10.7307103242       -3.2421052500        3.6981023551  MEMB      3               0.0000000000
       302         3  PYPG      H11R           10.6454723330       -2.2190940884        4.1229596955  MEMB      3               0.0000000000
       303         3  PYPG      H11S            9.9602243595       -3.9111881639        4.1374209029  MEMB      3               0.0000000000
       304         3  PYPG      C212           10.4582942316       -3.0807323391        2.2039132171  MEMB      3               0.0000000000
       305         3  PYPG      H12R           11.1069745884       -2.2524421014        1.8468844278  MEMB      3               0.0000000000
       306         3  PYPG      H12S            9.3975035308       -2.7912422556        2.0450434530  MEMB      3               0.0000000000
       307         3  PYPG      C213           10.5338430447       -4.3636357258        1.3469984604  MEMB      3               0.0000000000
       308         3  PYPG      H13R            9.6400506245       -4.9986971514        1.5263095766  MEMB      3               0.0000000000
       309         3  PYPG      H13S           11.3978902095       -5.0186984876        1.5891474676  MEMB      3               0.0000000000
       310         3  PYPG      C214           10.4412486808       -4.2205105296       -0.2264637792  MEMB      3               0.0000000000
       311         3  PYPG      H14R           11.1642228676       -3.4426435068       -0.5528863522  MEMB      3               0.0000000000
       312         3  PYPG      H14S           10.6889164694       -5.2004022865       -0.6877589974  MEMB      3               0.0000000000
       313         3  PYPG      C215            9.0655574654       -3.8288788944       -0.7044762294  MEMB      3               0.0000000000
       314         3  PYPG      H15R            9.0772500419       -2.7392344998       -0.4880045929  MEMB      3               0.0000000000
       315         3  PYPG      H15S            8.2505395745       -4.1374980904       -0.0154024765  MEMB      3               0.0000000000
       316         3  PYPG      C216            8.8062524405       -4.1454296836       -2.1270393652  MEMB      3               0.0000000000
       317         3  PYPG      H16R            7.7395965315       -4.3749340816       -2.3365470094  MEMB      3               0.0000000000
       318         3  PYPG      H16S            9.2184706917       -5.1495388888       -2.3640239106  MEMB      3               0.0000000000
       319         3  PYPG      H16T            9.1653344515       -3.2845250898       -2.7305487733  MEMB      3               0.0000000000
       320         3  PYPG      C33             8.3369453052        0.8740423043       12.7174117484  MEMB      3               0.0000000000
       321         3  PYPG      H3X             9.0006274726        0.5572658094       13.5501780127  MEMB      3               0.0000000000
       322         3  PYPG      H3Y             8.4528112341        1.9673684300       12.8772056516  MEMB      3               0.0000000000
       323         3  PYPG      C34             8.8617755727        0.4358130275       11.2750049066  MEMB      3               0.0000000000
       324         3  PYPG      H4X             8.1344625387        0.8277590240       10.5322294813  MEMB      3               0.0000000000
       325         3  PYPG      H4Y             8.7002981465       -0.6632892181       11.2898446521  MEMB      3               0.0000000000
       326         3  PYPG      C35            10.2852691599        0.6147822404       10.7230627521  MEMB      3               0.0000000000
       327         3  PYPG      H5X            10.9702071474        0.3003800094       11.5393545344  MEMB      3               0.0000000000
       328         3  PYPG      H5Y            10.5416364525        1.6630774650       10.4591045382  MEMB      3               0.0000000000
       329         3  PYPG      C36            10.5084056673       -0.4292042452        9.6083474275  MEMB      3               0.0000000000
       330         3  PYPG      H6X             9.9989661950       -1.4072778078        9.7431234844  MEMB      3               0.0000000000
       331         3  PYPG      H6Y            11.5676716821       -0.7587229421        9.5475707842  MEMB      3               0.0000000000
       332         3  PYPG      C37             9.9769405741        0.0590535669        8.2944271857  MEMB      3               0.0000000000
       333         3  PYPG      H7X            10.1208152553       -0.7062575298        7.5020132265  MEMB      3               0.0000000000
       334         3  PYPG      H7Y             8.9559435071        0.4783659836        8.4211682626  MEMB      3               0.0000000000
       335         3  PYPG      C38            10.8933076723        1.1302854097        7.6300193220  MEMB      3               0.0000000000
       336         3  PYPG      H8X            11.9473995940        0.9609140155        7.9374681157  MEMB      3               0.0000000000
       337         3  PYPG      H8Y            10.6589038799        2.1131365195        8.0919492276  MEMB      3               0.0000000000
       338         3  PYPG      C39            10.7445303897        1.3019703410        6.0581924385  MEMB      3               0.0000000000
       339         3  PYPG      H9X            11.1385185511        2.3155945801        5.8309035048  MEMB      3               0.0000000000
       340         3  PYPG      H9Y             9.6620488033        1.2432459821        5.8150750118  MEMB      3               0.0000000000
       341         3  PYPG      C310           11.6285327032        0.3144926429        5.3053304076  MEMB      3               0.0000000000
       342         3  PYPG      H10X           11.1951883688       -0.7025067933        5.4159937374  MEMB      3               0.0000000000
       343         3  PYPG      H10Y           12.6304083971        0.4837481566        5.7546841604  MEMB      3               0.0000000000
       344         3  PYPG      C311           11.7769032220        0.7409214047        3.8876173436  MEMB      3               0.0000000000
       345         3  PYPG      H11X           12.4611793314        0.0104221165        3.4054785652  MEMB      3               0.0000000000
       346         3  PYPG      H11Y           12.3502082434        1.6898268158        3.9598729553  MEMB      3               0.0000000000
       347         3  PYPG      C312           10.5177777388        0.9104684237        3.1234433769  MEMB      3               0.0000000000
       348         3  PYPG      H12X            9.9731867735       -0.0578954789        3.1198236851  MEMB      3               0.0000000000
       349         3  PYPG      H12Y            9.7887887001        1.5933972355        3.6097615513  MEMB      3               0.0000000000
       350         3  PYPG      C313           10.6987548447        1.4743585958        1.7626495552  MEMB      3               0.0000000000
       351         3  PYPG      H13X           11.3131342335        2.3824701959        1.9420715976  MEMB      3               0.0000000000
       352         3  PYPG      H13Y           11.2543239720        0.8456833794        1.0343428728  MEMB      3               0.0000000000
       353         3  PYPG      C314            9.3355517941        1.9501515577        1.0449707148  MEMB      3               0.0000000000
       354         3  PYPG      H14X            8.6575418693        2.3862947087        1.8094318971  MEMB      3               0.0000000000
       355         3  PYPG      H14Y            9.6100513561        2.5406548957        0.1448157664  MEMB      3               0.0000000000
       356         3  PYPG      C315            8.4960771688        0.7481833081        0.5363727143  MEMB      3               0.0000000000
       357         3  PYPG      H15X            9.1935787970        0.1089201766       -0.0459981865  MEMB      3               0.0000000000
       358         3  PYPG      H15Y            8.1591187127        0.0641241639        1.3443605142  MEMB      3               0.0000000000
       359         3  PYPG      C316            7.3447170658        1.0500914585       -0.4364687747  MEMB      3               0.0000000000
       360         3  PYPG      H16X            7.6406186616        1.7472954636       -1.2492855160  MEMB      3               0.0000000000
       361         3  PYPG      H16Y            6.5088239744        1.5681243327        0.0804896134  MEMB      3               0.0000000000
       362         3  PYPG      H16Z            7.1471671748        0.0741471467       -0.9292440490  MEMB      3               0.0000000000
       363         4  PMPG      C13            -6.6857135435       -3.0838615786       20.7311015437  MEMB      4               0.0000000000
       364         4  PMPG      H13A           -6.7953934673       -3.5118552893       21.7504701948  MEMB      4               0.0000000000
       365         4  PMPG      H13B           -6.3936796253       -3.9346329785       20.0790084643  MEMB      4               0.0000000000
       366         4  PMPG      OC3            -5.6354919351       -2.0947217948       20.7679866430  MEMB      4               0.0000000000
       367         4  PMPG      HO3            -5.9016577603       -1.4480045898       20.1103296715  MEMB      4               0.0000000000
       368         4  PMPG      C12            -8.1084362538       -2.5515447108       20.5132384792  MEMB      4               0.0000000000
       369         4  PMPG      H12A           -8.3500772804       -1.8892952329       21.3768438771  MEMB      4               0.0000000000
       370         4  PMPG      OC2            -9.0429639713       -3.6316810855       20.5111775553  MEMB      4               0.0000000000
       371         4  PMPG      HO2            -9.8797983913       -3.1992911753       20.2328540760  MEMB      4               0.0000000000
       372         4  PMPG      C11            -8.2710879435       -1.7143792000       19.2255298878  MEMB      4               0.0000000000
       373         4  PMPG      H11A           -7.8902870235       -2.2666575890       18.3399226336  MEMB      4               0.0000000000
       374         4  PMPG      H11B           -7.6130891776       -0.8436307737       19.4332697029  MEMB      4               0.0000000000
       375         4  PMPG      P             -10.0699049182       -0.7465820185       17.6492250705  MEMB      4               0.0000000000
       376         4  PMPG      O13            -9.3193650959        0.5104471360       17.3049970866  MEMB      4               0.0000000000
       377         4  PMPG      O14           -11.5486761943       -0.6722501428       17.5553389753  MEMB      4               0.0000000000
       378         4  PMPG      O11            -9.6460585753       -1.8368816544       16.6850397578  MEMB      4               0.0000000000
       379         4  PMPG      O12            -9.6238639731       -1.3952188397       19.0563650053  MEMB      4               0.0000000000
       380         4  PMPG      C1            -10.1708616906       -3.1487292175       16.7798553112  MEMB      4               0.0000000000
       381         4  PMPG      HA            -11.1086827560       -3.0755022668       16.1887120397  MEMB      4               0.0000000000
       382         4  PMPG      HB            -10.4988312830       -3.4626018983       17.7938774122  MEMB      4               0.0000000000
       383         4  PMPG      C2             -9.2563379812       -4.2028515222       16.0636472222  MEMB      4               0.0000000000
       384         4  PMPG      HS             -9.4863980513       -5.1952848794       16.5068961283  MEMB      4               0.0000000000
       385         4  PMPG      O21            -7.8614813225       -3.8251144257       16.2525138209  MEMB      4               0.0000000000
       386         4  PMPG      C21            -7.0249665545       -4.8226406045       16.0744318414  MEMB      4               0.0000000000
       387         4  PMPG      O22            -7.3118227770       -6.0265246361       16.0862529374  MEMB      4               0.0000000000
       388         4  PMPG      C22            -5.5336806554       -4.2841001408       15.9696278381  MEMB      4               0.0000000000
       389         4  PMPG      H2R            -4.9133706597       -5.1733312938       15.7271322197  MEMB      4               0.0000000000
       390         4  PMPG      H2S            -5.2856985404       -3.7873790834       16.9319656384  MEMB      4               0.0000000000
       391         4  PMPG      C3             -9.5198495947       -4.2868664234       14.5451912821  MEMB      4               0.0000000000
       392         4  PMPG      HX            -10.4935952092       -4.8116489409       14.4415378081  MEMB      4               0.0000000000
       393         4  PMPG      HY             -8.6896119562       -4.7531093048       13.9727892371  MEMB      4               0.0000000000
       394         4  PMPG      O31            -9.6385539696       -2.9841791220       13.9998439703  MEMB      4               0.0000000000
       395         4  PMPG      C31           -10.2540727046       -3.0228241422       12.7245796296  MEMB      4               0.0000000000
       396         4  PMPG      O32           -10.4727643891       -4.0360268369       12.1117120604  MEMB      4               0.0000000000
       397         4  PMPG      C32           -10.8312615412       -1.6150018973       12.3958379800  MEMB      4               0.0000000000
       398         4  PMPG      H2X           -10.7647761654       -1.0114911852       13.3262549291  MEMB      4               0.0000000000
       399         4  PMPG      H2Y           -11.9015294953       -1.8528870954       12.2162335814  MEMB      4               0.0000000000
       400         4  PMPG      C23            -5.3711061771       -3.1944922255       14.9517514811  MEMB      4               0.0000000000
       401         4  PMPG      H3R            -4.3622974310       -2.7467547545       15.0788627801  MEMB      4               0.0000000000
       402         4  PMPG      H3S            -6.2161191234       -2.4945671762       15.1260475765  MEMB      4               0.0000000000
       403         4  PMPG      C24            -5.3661132842       -3.5685185308       13.4314657101  MEMB      4               0.0000000000
       404         4  PMPG      H4R            -6.2484417938       -4.2081303514       13.2153307538  MEMB      4               0.0000000000
       405         4  PMPG      H4S            -4.4081717815       -4.0985186027       13.2423376769  MEMB      4               0.0000000000
       406         4  PMPG      C25            -5.5061078240       -2.4110417342       12.4239088148  MEMB      4               0.0000000000
       407         4  PMPG      H5R            -4.5692968290       -1.8171715531       12.4873436253  MEMB      4               0.0000000000
       408         4  PMPG      H5S            -6.4004832941       -1.8175746877       12.7106326881  MEMB      4               0.0000000000
       409         4  PMPG      C26            -5.5102857740       -2.8863257392       11.0176421320  MEMB      4               0.0000000000
       410         4  PMPG      H6R            -6.0103578261       -3.8757850545       10.9453981383  MEMB      4               0.0000000000
       411         4  PMPG      H6S            -4.4576097748       -3.1141654803       10.7450917482  MEMB      4               0.0000000000
       412         4  PMPG      C27            -6.2261414860       -1.9056395426       10.0038964711  MEMB      4               0.0000000000
       413         4  PMPG      H7R            -5.8353269084       -0.8705408791       10.1046723082  MEMB      4               0.0000000000
       414         4  PMPG      H7S            -7.3281478855       -1.9638429794       10.1324068602  MEMB      4               0.0000000000
       415         4  PMPG      C28            -5.9673804105       -2.3886257847        8.5920028551  MEMB      4               0.0000000000
       416         4  PMPG      H8R            -5.9964239096       -3.4965698174        8.6690574280  MEMB      4               0.0000000000
       417         4  PMPG      H8S            -4.9996810614       -2.0529900816        8.1616219972  MEMB      4               0.0000000000
       418         4  PMPG      C29            -7.1455270659       -1.9693427611        7.6631099783  MEMB      4               0.0000000000
       419         4  PMPG      H9R            -8.0259382218       -1.4758649375        8.1275201177  MEMB      4               0.0000000000
       420         4  PMPG      C217           -6.9287711241       -1.2527009775        6.2802457430  MEMB      4               0.0000000000
       421         4  PMPG      H17R           -7.6581189636       -0.4560930291        6.2005190688  MEMB      4               0.0000000000
       422         4  PMPG      H17S           -5.8809151241       -1.0526922409        6.0934746462  MEMB      4               0.0000000000
       423         4  PMPG      C210           -7.3468019123       -2.7553438462        6.3616047025  MEMB      4               0.0000000000
       424         4  PMPG      H10R           -8.3695884411       -3.0288353127        6.0248094887  MEMB      4               0.0000000000
       425         4  PMPG      C211           -6.2871135856       -3.8179624896        5.9677451317  MEMB      4               0.0000000000
       426         4  PMPG      H11R           -5.2545842821       -3.5522897022        6.2801910126  MEMB      4               0.0000000000
       427         4  PMPG      H11S           -6.5681207001       -4.7350389061        6.5283935816  MEMB      4               0.0000000000
       428         4  PMPG      C212           -6.3016392702       -4.0620755164        4.4846815902  MEMB      4               0.0000000000
       429         4  PMPG      H12R           -5.4684110106       -4.7190636349        4.1554121378  MEMB      4               0.0000000000
       430         4  PMPG      H12S           -6.0790733837       -3.1053796108        3.9655301445  MEMB      4               0.0000000000
       431         4  PMPG      C213           -7.5245702196       -4.4654046559        3.7507481943  MEMB      4               0.0000000000
       432         4  PMPG      H13R           -8.5076941521       -4.0125466015        4.0011638205  MEMB      4               0.0000000000
       433         4  PMPG      H13S           -7.7524680797       -5.5311969877        3.9663186599  MEMB      4               0.0000000000
       434         4  PMPG      C214           -7.4075410058       -4.3605130018        2.1676462659  MEMB      4               0.0000000000
       435         4  PMPG      H14R           -6.7251883921       -5.1932348039        1.8932552300  MEMB      4               0.0000000000
       436         4  PMPG      H14S           -7.0216510102       -3.3471632035        1.9257113155  MEMB      4               0.0000000000
       437         4  PMPG      C215           -8.7636097174       -4.2726582548        1.4752308084  MEMB      4               0.0000000000
       438         4  PMPG      H15R           -8.5727202887       -3.8019393459        0.4871494295  MEMB      4               0.0000000000
       439         4  PMPG      H15S           -9.3961946888       -3.5703076294        2.0590638683  MEMB      4               0.0000000000
       440         4  PMPG      C216           -9.6053442307       -5.5336374628        1.2877477522  MEMB      4               0.0000000000
       441         4  PMPG      H16R           -8.9989011638       -6.3683137778        0.8756034704  MEMB      4               0.0000000000
       442         4  PMPG      H16S          -10.3803444384       -5.3548747875        0.5120293662  MEMB      4               0.0000000000
       443         4  PMPG      H16T          -10.0721434615       -5.7849796275        2.2640922120  MEMB      4               0.0000000000
       444         4  PMPG      C33           -10.1930720149       -0.9737544479       11.2183245418  MEMB      4               0.0000000000
       445         4  PMPG      H3X            -9.7825651844       -1.6250063813       10.4172782446  MEMB      4               0.0000000000
       446         4  PMPG      H3Y            -9.3651055811       -0.3721299116       11.6505752976  MEMB      4               0.0000000000
       447         4  PMPG      C34           -11.2016493837        0.0283139044       10.6354333359  MEMB      4               0.0000000000
       448         4  PMPG      H4X           -11.5783356063        0.7955340214       11.3452233690  MEMB      4               0.0000000000
       449         4  PMPG      H4Y           -12.0822882492       -0.5039916422       10.2165690526  MEMB      4               0.0000000000
       450         4  PMPG      C35           -10.7243173792        0.7113906295        9.3813715010  MEMB      4               0.0000000000
       451         4  PMPG      H5X            -9.6374395208        0.9402882418        9.4063378570  MEMB      4               0.0000000000
       452         4  PMPG      H5Y           -11.4026153624        1.5715176625        9.1958604930  MEMB      4               0.0000000000
       453         4  PMPG      C36           -10.9187628326       -0.1964274034        8.0931451003  MEMB      4               0.0000000000
       454         4  PMPG      H6X           -11.9393241460       -0.6353774055        8.1030533177  MEMB      4               0.0000000000
       455         4  PMPG      H6Y           -10.1792189642       -1.0130578575        8.2363604783  MEMB      4               0.0000000000
       456         4  PMPG      C37           -10.5152201492        0.5501171251        6.7461668894  MEMB      4               0.0000000000
       457         4  PMPG      H7X            -9.4538970672        0.8434109741        6.8941290425  MEMB      4               0.0000000000
       458         4  PMPG      H7Y           -11.1116287532        1.4853816056        6.6837290773  MEMB      4               0.0000000000
       459         4  PMPG      C38           -10.4311733711       -0.3525307240        5.4791976292  MEMB      4               0.0000000000
       460         4  PMPG      H8X           -11.3254330406       -1.0104038686        5.4364963092  MEMB      4               0.0000000000
       461         4  PMPG      H8Y            -9.4665029141       -0.8905667181        5.5985685703  MEMB      4               0.0000000000
       462         4  PMPG      C39           -10.3701457241        0.4338458234        4.1760540735  MEMB      4               0.0000000000
       463         4  PMPG      H9X            -9.9855268715        1.4224808708        4.5061903943  MEMB      4               0.0000000000
       464         4  PMPG      H9Y           -11.4014970943        0.5278945813        3.7738224193  MEMB      4               0.0000000000
       465         4  PMPG      C310           -9.4059672937       -0.2757760367        3.1486131958  MEMB      4               0.0000000000
       466         4  PMPG      H10X           -9.9955584826       -1.2000117522        2.9683587115  MEMB      4               0.0000000000
       467         4  PMPG      H10Y           -8.4507479273       -0.4873049437        3.6750468489  MEMB      4               0.0000000000
       468         4  PMPG      C311           -9.1680187322        0.6006086477        1.8883732885  MEMB      4               0.0000000000
       469         4  PMPG      H11X           -8.6559565605        1.5496208006        2.1557489136  MEMB      4               0.0000000000
       470         4  PMPG      H11Y          -10.1279725149        1.0103072744        1.5076413551  MEMB      4               0.0000000000
       471         4  PMPG      C312           -8.4125778292       -0.1232243153        0.8237041720  MEMB      4               0.0000000000
       472         4  PMPG      H12X           -9.0982477773       -0.9461839212        0.5288894142  MEMB      4               0.0000000000
       473         4  PMPG      H12Y           -7.5034225099       -0.6113001843        1.2354551354  MEMB      4               0.0000000000
       474         4  PMPG      C313           -7.7834076452        0.8041819708       -0.2102088128  MEMB      4               0.0000000000
       475         4  PMPG      H13X           -7.3355027643        1.6127217648        0.4062055164  MEMB      4               0.0000000000
       476         4  PMPG      H13Y           -8.5284016039        1.3177542034       -0.8548383238  MEMB      4               0.0000000000
       477         4  PMPG      C314           -6.6379248766        0.1335042213       -0.9986179801  MEMB      4               0.0000000000
       478         4  PMPG      H14X           -7.0381244663       -0.7837446671       -1.4811275563  MEMB      4               0.0000000000
       479         4  PMPG      H14Y           -5.8769797312       -0.2194966955       -0.2701437528  MEMB      4               0.0000000000
       480         4  PMPG      C315           -6.0630195349        1.0955323203       -2.0642605972  MEMB      4               0.0000000000
       481         4  PMPG      H15X           -6.7920908776        1.0737125251       -2.9022933529  MEMB      4               0.0000000000
       482         4  PMPG      H15Y           -5.1057553846        0.6990629418       -2.4652325074  MEMB      4               0.0000000000
       483         4  PMPG      C316           -5.9456518855        2.6213264460       -1.8697243522  MEMB      4               0.0000000000
       484         4  PMPG      H16X           -5.6013805535        2.8944945622       -0.8493430608  MEMB      4               0.0000000000
       485         4  PMPG      H16Y           -6.9612272515        3.0598392840       -1.9728461547  MEMB      4               0.0000000000
       486         4  PMPG      H16Z           -5.2686630254        2.9818371181       -2.6734899914  MEMB      4               0.0000000000
       487         5  QMPE      N               3.0094327046        8.5534777168       20.2031088208  MEMB      5               0.0000000000
       488         5  QMPE      HN1             2.2874345965        9.0355372661       19.6304507745  MEMB      5               0.0000000000
       489         5  QMPE      HN2             2.7625797469        8.3478099762       21.1922318126  MEMB      5               0.0000000000
       490         5  QMPE      HN3             3.8678119990        9.1399511461       20.2319871057  MEMB      5               0.0000000000
       491         5  QMPE      C12             3.2968045994        7.2587257122       19.4915439068  MEMB      5               0.0000000000
       492         5  QMPE      H12A            2.3224046947        6.9058618358       19.0911028338  MEMB      5               0.0000000000
       493         5  QMPE      H12B            3.6857697798        6.5989209159       20.2963325222  MEMB      5               0.0000000000
       494         5  QMPE      C11             4.2594163060        7.4308721604       18.2456036777  MEMB      5               0.0000000000
       495         5  QMPE      H11A            3.7057467609        8.0787900549       17.5328811812  MEMB      5               0.0000000000
       496         5  QMPE      H11B            4.3827017680        6.5359896411       17.5988371548  MEMB      5               0.0000000000
       497         5  QMPE      P               6.6831541136        6.8889677698       18.9056268574  MEMB      5               0.0000000000
       498         5  QMPE      O13             6.3210745687        5.8663601478       19.8562202200  MEMB      5               0.0000000000
       499         5  QMPE      O14             7.9334095971        7.6354279943       19.1710417360  MEMB      5               0.0000000000
       500         5  QMPE      O11             6.9472349447        6.1595138459       17.5049693422  MEMB      5               0.0000000000
       501         5  QMPE      O12             5.5658388473        7.9695471333       18.6218854409  MEMB      5               0.0000000000
       502         5  QMPE      C1              7.7411559902        5.0374414357       17.2998170945  MEMB      5               0.0000000000
       503         5  QMPE      HA              7.6072699705        4.2465431827       18.0685014802  MEMB      5               0.0000000000
       504         5  QMPE      HB              8.8150497993        5.3221738525       17.2989092163  MEMB      5               0.0000000000
       505         5  QMPE      C2              7.2805954387        4.5851747330       15.8865910236  MEMB      5               0.0000000000
       506         5  QMPE      HS              7.9311377545        3.8013437350       15.4430544729  MEMB      5               0.0000000000
       507         5  QMPE      O21             7.3443835501        5.7324039541       15.0159018445  MEMB      5               0.0000000000
       508         5  QMPE      C21             8.2498042836        5.8059020157       14.0348566264  MEMB      5               0.0000000000
       509         5  QMPE      O22             9.0370416560        4.9449302664       13.7355367148  MEMB      5               0.0000000000
       510         5  QMPE      C22             8.1862117442        7.1069902225       13.3661833346  MEMB      5               0.0000000000
       511         5  QMPE      H2R             8.5799270759        7.9053962928       14.0309064502  MEMB      5               0.0000000000
       512         5  QMPE      H2S             7.1076869333        7.3309592987       13.2214662731  MEMB      5               0.0000000000
       513         5  QMPE      C3              5.8108126253        3.9631242085       15.8481003776  MEMB      5               0.0000000000
       514         5  QMPE      HX              5.1979184619        4.6068430815       16.5146644884  MEMB      5               0.0000000000
       515         5  QMPE      HY              5.7843525416        2.9191932264       16.2273484644  MEMB      5               0.0000000000
       516         5  QMPE      O31             5.1821139261        4.1251860281       14.5529251059  MEMB      5               0.0000000000
       517         5  QMPE      C31             5.7048818776        3.3157249464       13.6361187277  MEMB      5               0.0000000000
       518         5  QMPE      O32             6.3915332375        2.3405830871       13.8748482933  MEMB      5               0.0000000000
       519         5  QMPE      C32             5.1466518945        3.6391204294       12.2097787497  MEMB      5               0.0000000000
       520         5  QMPE      H2X             4.3843830283        2.8591967547       11.9976789590  MEMB      5               0.0000000000
       521         5  QMPE      H2Y             4.5748193742        4.5903238224       12.2601824735  MEMB      5               0.0000000000
       522         5  QMPE      C23             8.8222868861        7.1866522232       11.9510522701  MEMB      5               0.0000000000
       523         5  QMPE      H3R             8.5923368009        6.2953931563       11.3288780130  MEMB      5               0.0000000000
       524         5  QMPE      H3S             9.9242534805        7.0967428552       12.0601699087  MEMB      5               0.0000000000
       525         5  QMPE      C24             8.4501492946        8.3944029616       11.0960633135  MEMB      5               0.0000000000
       526         5  QMPE      H4R             8.9820097215        9.3241721752       11.3909783068  MEMB      5               0.0000000000
       527         5  QMPE      H4S             7.4156063607        8.5487229998       11.4705327300  MEMB      5               0.0000000000
       528         5  QMPE      C25             8.3247552191        8.1281762240        9.6062645998  MEMB      5               0.0000000000
       529         5  QMPE      H5R             7.6939969145        7.2582619408        9.3239275780  MEMB      5               0.0000000000
       530         5  QMPE      H5S             9.3015876300        8.1279242535        9.0770021879  MEMB      5               0.0000000000
       531         5  QMPE      C26             7.4697324899        9.2467463325        9.0171097902  MEMB      5               0.0000000000
       532         5  QMPE      H6R             7.5664410880        9.0573665550        7.9266495086  MEMB      5               0.0000000000
       533         5  QMPE      H6S             7.8896251545       10.2642523217        9.1677517988  MEMB      5               0.0000000000
       534         5  QMPE      C27             5.9999101867        9.3175683439        9.4270664547  MEMB      5               0.0000000000
       535         5  QMPE      H7R             5.4429196344       10.1799177610        9.0022884007  MEMB      5               0.0000000000
       536         5  QMPE      H7S             5.8291721876        9.5247706033       10.5051367223  MEMB      5               0.0000000000
       537         5  QMPE      C28             5.0845775790        8.1000227395        9.2075498754  MEMB      5               0.0000000000
       538         5  QMPE      H8R             5.3335934355        7.4278054969       10.0563351691  MEMB      5               0.0000000000
       539         5  QMPE      H8S             5.2982385487        7.6271074845        8.2251949980  MEMB      5               0.0000000000
       540         5  QMPE      C29             3.6267643504        8.4828097979        9.3247447976  MEMB      5               0.0000000000
       541         5  QMPE      H9R             3.2718840779        9.1060698809       10.1732305416  MEMB      5               0.0000000000
       542         5  QMPE      C217            2.5938340719        7.5032970847        8.7710289599  MEMB      5               0.0000000000
       543         5  QMPE      H17R            3.1498615847        6.6081837209        8.5210406548  MEMB      5               0.0000000000
       544         5  QMPE      H17S            1.7302741255        7.6576412990        9.4061130913  MEMB      5               0.0000000000
       545         5  QMPE      C210            2.9371144767        8.8119277300        8.0134059357  MEMB      5               0.0000000000
       546         5  QMPE      H10R            2.1240730908        9.5629982138        8.1092053097  MEMB      5               0.0000000000
       547         5  QMPE      C211            3.5201132795        8.5870523829        6.5996472788  MEMB      5               0.0000000000
       548         5  QMPE      H11R            4.1543293551        9.4834778946        6.4307918628  MEMB      5               0.0000000000
       549         5  QMPE      H11S            4.1124272471        7.6608951747        6.4392789732  MEMB      5               0.0000000000
       550         5  QMPE      C212            2.3554049309        8.6892970932        5.5555611959  MEMB      5               0.0000000000
       551         5  QMPE      H12R            1.9480573885        9.6885139550        5.8200517406  MEMB      5               0.0000000000
       552         5  QMPE      H12S            1.5715397618        7.9584858616        5.8484636284  MEMB      5               0.0000000000
       553         5  QMPE      C213            2.6124528387        8.3714337367        4.0572847456  MEMB      5               0.0000000000
       554         5  QMPE      H13R            1.5832582247        8.5084297125        3.6619224717  MEMB      5               0.0000000000
       555         5  QMPE      H13S            2.8844719283        7.3055792234        3.9014613458  MEMB      5               0.0000000000
       556         5  QMPE      C214            3.7582263771        9.1033318167        3.3499265412  MEMB      5               0.0000000000
       557         5  QMPE      H14R            3.9805841070        8.6704603431        2.3511780529  MEMB      5               0.0000000000
       558         5  QMPE      H14S            4.6193781139        9.0923166193        4.0517933828  MEMB      5               0.0000000000
       559         5  QMPE      C215            3.4971755503       10.6568987466        3.1775733366  MEMB      5               0.0000000000
       560         5  QMPE      H15R            3.2479805034       11.2167067114        4.1043079902  MEMB      5               0.0000000000
       561         5  QMPE      H15S            2.5851076361       10.7963613776        2.5587009063  MEMB      5               0.0000000000
       562         5  QMPE      C216            4.6232466978       11.3748562605        2.4207551244  MEMB      5               0.0000000000
       563         5  QMPE      H16R            4.8968403143       10.9827859833        1.4178847493  MEMB      5               0.0000000000
       564         5  QMPE      H16S            5.5934534022       11.4188281081        2.9602797218  MEMB      5               0.0000000000
       565         5  QMPE      H16T            4.3425483281       12.4300041235        2.2153471381  MEMB      5               0.0000000000
       566         5  QMPE      C33             6.3269754808        3.6156352274       11.2040551620  MEMB      5               0.0000000000
       567         5  QMPE      H3X             6.8049601658        2.6258611387       11.3659161588  MEMB      5               0.0000000000
       568         5  QMPE      H3Y             7.1405081861        4.3053171796       11.5152218617  MEMB      5               0.0000000000
       569         5  QMPE      C34             5.9493096679        3.8913563481        9.7512086179  MEMB      5               0.0000000000
       570         5  QMPE      H4X             5.2605174742        4.7595670233        9.6731294876  MEMB      5               0.0000000000
       571         5  QMPE      H4Y             5.3932543439        3.0075107568        9.3718141454  MEMB      5               0.0000000000
       572         5  QMPE      C35             7.1542304112        4.0299917930        8.7922520585  MEMB      5               0.0000000000
       573         5  QMPE      H5X             7.9164270672        3.2526023782        9.0137081334  MEMB      5               0.0000000000
       574         5  QMPE      H5Y             7.6228443395        4.9915409158        9.0924937950  MEMB      5               0.0000000000
       575         5  QMPE      C36             6.8992118946        3.9363958040        7.2576572419  MEMB      5               0.0000000000
       576         5  QMPE      H6X             6.4125830741        2.9407519131        7.1788751467  MEMB      5               0.0000000000
       577         5  QMPE      H6Y             7.8786031818        3.9096716802        6.7338263090  MEMB      5               0.0000000000
       578         5  QMPE      C37             6.0471877891        5.1220864535        6.6894800399  MEMB      5               0.0000000000
       579         5  QMPE      H7X             5.1113407977        5.3092635875        7.2582301633  MEMB      5               0.0000000000
       580         5  QMPE      H7Y             6.8008253049        5.9205540913        6.8591891861  MEMB      5               0.0000000000
       581         5  QMPE      C38             5.7727504087        4.9333100814        5.1981750032  MEMB      5               0.0000000000
       582         5  QMPE      H8X             5.3083125832        3.9265962441        5.1264430703  MEMB      5               0.0000000000
       583         5  QMPE      H8Y             5.0295661163        5.7001317836        4.8916090158  MEMB      5               0.0000000000
       584         5  QMPE      C39             7.0597240331        5.2199030305        4.3396824826  MEMB      5               0.0000000000
       585         5  QMPE      H9X             6.8567498380        4.8912900950        3.2979834824  MEMB      5               0.0000000000
       586         5  QMPE      H9Y             7.9668419264        4.6802186263        4.6863795736  MEMB      5               0.0000000000
       587         5  QMPE      C310            7.4910426151        6.6938186746        4.3113744976  MEMB      5               0.0000000000
       588         5  QMPE      H10X            7.6037994600        6.9535913654        5.3856765554  MEMB      5               0.0000000000
       589         5  QMPE      H10Y            6.6443229912        7.2943409913        3.9154454188  MEMB      5               0.0000000000
       590         5  QMPE      C311            8.7863040729        6.9146664433        3.5594604667  MEMB      5               0.0000000000
       591         5  QMPE      H11X            8.6386851570        6.6751907658        2.4846676766  MEMB      5               0.0000000000
       592         5  QMPE      H11Y            9.5665968796        6.3126156131        4.0722943853  MEMB      5               0.0000000000
       593         5  QMPE      C312            9.2515043087        8.4425687100        3.6707175603  MEMB      5               0.0000000000
       594         5  QMPE      H12X           10.3105285979        8.4035447621        3.3371522223  MEMB      5               0.0000000000
       595         5  QMPE      H12Y            9.1842457388        8.7489580123        4.7365138540  MEMB      5               0.0000000000
       596         5  QMPE      C313            8.5489677617        9.5220357240        2.8650602349  MEMB      5               0.0000000000
       597         5  QMPE      H13X            8.2365863403        9.1656345580        1.8602131621  MEMB      5               0.0000000000
       598         5  QMPE      H13Y            7.7254547672        9.8187633734        3.5492379660  MEMB      5               0.0000000000
       599         5  QMPE      C314            9.3394724652       10.8577171159        2.8256401762  MEMB      5               0.0000000000
       600         5  QMPE      H14X           10.3570010912       10.7142706575        2.4032891171  MEMB      5               0.0000000000
       601         5  QMPE      H14Y            9.4144271183       11.2294269866        3.8699264638  MEMB      5               0.0000000000
       602         5  QMPE      C315            8.6334636971       11.9049297462        1.9656253408  MEMB      5               0.0000000000
       603         5  QMPE      H15X            8.2549992574       11.4366358265        1.0319307473  MEMB      5               0.0000000000
       604         5  QMPE      H15Y            7.7445615125       12.4232169866        2.3846149842  MEMB      5               0.0000000000
       605         5  QMPE      H15Z            9.3050014280       12.7419483620        1.6779480923  MEMB      5               0.0000000000
       606         6  PMPE      N             -10.4307859991        3.7527926131       19.4581840923  MEMB      6               0.0000000000
       607         6  PMPE      HN1           -11.1249541192        3.3950215557       18.7713578732  MEMB      6               0.0000000000
       608         6  PMPE      HN2            -9.4663668308        3.8159541025       19.0741184774  MEMB      6               0.0000000000
       609         6  PMPE      HN3           -10.3782473757        2.9990004243       20.1727727397  MEMB      6               0.0000000000
       610         6  PMPE      C12           -10.8238401364        4.9626644960       20.1733290005  MEMB      6               0.0000000000
       611         6  PMPE      H12A          -10.3143209476        4.9804527181       21.1604433189  MEMB      6               0.0000000000
       612         6  PMPE      H12B          -11.9238955178        5.0034250955       20.3234550633  MEMB      6               0.0000000000
       613         6  PMPE      C11           -10.3456678638        6.3163725518       19.4601551565  MEMB      6               0.0000000000
       614         6  PMPE      H11A          -10.7508273067        7.1370279642       20.0899896489  MEMB      6               0.0000000000
       615         6  PMPE      H11B          -10.8214354364        6.3089457024       18.4562073933  MEMB      6               0.0000000000
       616         6  PMPE      P              -8.2108938240        7.6837506311       18.6053958891  MEMB      6               0.0000000000
       617         6  PMPE      O13            -6.7343569346        7.6025743723       18.7658225867  MEMB      6               0.0000000000
       618         6  PMPE      O14            -8.9004501302        8.8675140558       19.0984766064  MEMB      6               0.0000000000
       619         6  PMPE      O11            -8.5113903988        7.3209811574       17.1056182813  MEMB      6               0.0000000000
       620         6  PMPE      O12            -8.8919763957        6.4202581239       19.3330183836  MEMB      6               0.0000000000
       621         6  PMPE      C1             -7.9375030405        6.2615462794       16.3301782890  MEMB      6               0.0000000000
       622         6  PMPE      HA             -8.6867593934        5.8970676934       15.5952693145  MEMB      6               0.0000000000
       623         6  PMPE      HB             -7.7509801123        5.3473097555       16.9332553176  MEMB      6               0.0000000000
       624         6  PMPE      C2             -6.6184472574        6.6092136335       15.5772457358  MEMB      6               0.0000000000
       625         6  PMPE      HS             -5.7779260032        6.7012906905       16.2979169509  MEMB      6               0.0000000000
       626         6  PMPE      O21            -6.8922889537        7.7643005679       14.7235730613  MEMB      6               0.0000000000
       627         6  PMPE      C21            -6.6492825430        8.9799663213       15.1610563887  MEMB      6               0.0000000000
       628         6  PMPE      O22            -5.9483231479        9.3456889140       16.0312935599  MEMB      6               0.0000000000
       629         6  PMPE      C22            -7.5994651334        9.9539910850       14.3843782640  MEMB      6               0.0000000000
       630         6  PMPE      H2R            -7.1006283760       10.1746173002       13.4164903359  MEMB      6               0.0000000000
       631         6  PMPE      H2S            -7.6680540569       10.9112984090       14.9440021385  MEMB      6               0.0000000000
       632         6  PMPE      C3             -6.1123096635        5.4272438653       14.6356033821  MEMB      6               0.0000000000
       633         6  PMPE      HX             -5.8388998222        4.6113295033       15.3383493546  MEMB      6               0.0000000000
       634         6  PMPE      HY             -5.2831099944        5.7892724479       13.9908673980  MEMB      6               0.0000000000
       635         6  PMPE      O31            -7.1969767742        4.9695435398       13.7370031494  MEMB      6               0.0000000000
       636         6  PMPE      C31            -6.8071806842        4.4380348114       12.6330376503  MEMB      6               0.0000000000
       637         6  PMPE      O32            -5.6526900777        4.0303549529       12.4322010446  MEMB      6               0.0000000000
       638         6  PMPE      C32            -8.0258714418        4.3117578206       11.6745940488  MEMB      6               0.0000000000
       639         6  PMPE      H2X            -8.5348635013        5.2977027893       11.6183760922  MEMB      6               0.0000000000
       640         6  PMPE      H2Y            -8.7531007876        3.5678851222       12.0646091372  MEMB      6               0.0000000000
       641         6  PMPE      C23            -9.0651699081        9.5972590668       13.9703572500  MEMB      6               0.0000000000
       642         6  PMPE      H3R            -9.5873199405       10.5490765309       13.7342978798  MEMB      6               0.0000000000
       643         6  PMPE      H3S            -9.4644635271        9.0292947653       14.8377108225  MEMB      6               0.0000000000
       644         6  PMPE      C24            -9.3366208650        8.6088467903       12.8353231121  MEMB      6               0.0000000000
       645         6  PMPE      H4R            -8.8204233448        7.6310636069       12.9439572406  MEMB      6               0.0000000000
       646         6  PMPE      H4S            -9.0032034559        9.0551422761       11.8740874780  MEMB      6               0.0000000000
       647         6  PMPE      C25           -10.8114968412        8.2083108284       12.8964453377  MEMB      6               0.0000000000
       648         6  PMPE      H5R           -11.4090456650        9.1179804019       12.6733811497  MEMB      6               0.0000000000
       649         6  PMPE      H5S           -11.1704848957        7.7658373585       13.8502093754  MEMB      6               0.0000000000
       650         6  PMPE      C26           -11.2560713847        7.2370981197       11.7728512134  MEMB      6               0.0000000000
       651         6  PMPE      H6R           -12.3663675986        7.2703329097       11.7514327229  MEMB      6               0.0000000000
       652         6  PMPE      H6S           -10.7567712488        6.2523477853       11.8964925256  MEMB      6               0.0000000000
       653         6  PMPE      C27           -10.8039417792        7.5471467637       10.3012215493  MEMB      6               0.0000000000
       654         6  PMPE      H7R           -10.5082931337        6.5952018524        9.8105955720  MEMB      6               0.0000000000
       655         6  PMPE      H7S            -9.8767423306        8.1493150606       10.1916070640  MEMB      6               0.0000000000
       656         6  PMPE      C28           -11.8817569456        8.3311923203        9.5181341364  MEMB      6               0.0000000000
       657         6  PMPE      H8R           -12.1366973483        9.2645408533       10.0641987864  MEMB      6               0.0000000000
       658         6  PMPE      H8S           -12.8043265091        7.7121772850        9.5207070608  MEMB      6               0.0000000000
       659         6  PMPE      C29           -11.4653598293        8.6807347898        8.0745625249  MEMB      6               0.0000000000
       660         6  PMPE      H9R           -10.5006317859        9.2190837254        7.9570838950  MEMB      6               0.0000000000
       661         6  PMPE      C217          -12.5537124129        8.6658848442        7.0220972668  MEMB      6               0.0000000000
       662         6  PMPE      H17R          -12.4258327981        9.3898515918        6.2268564217  MEMB      6               0.0000000000
       663         6  PMPE      H17S          -13.5851760196        8.3559222170        7.1356533427  MEMB      6               0.0000000000
       664         6  PMPE      C210          -11.5800304646        7.5385715770        7.0170288044  MEMB      6               0.0000000000
       665         6  PMPE      H10R          -10.7879392070        7.4333976681        6.2451150765  MEMB      6               0.0000000000
       666         6  PMPE      C211          -12.1172233514        6.1597327934        7.3133536268  MEMB      6               0.0000000000
       667         6  PMPE      H11R          -13.1750381140        6.2653024181        7.6361604039  MEMB      6               0.0000000000
       668         6  PMPE      H11S          -11.6128929887        5.8090761645        8.2391036200  MEMB      6               0.0000000000
       669         6  PMPE      C212          -11.9244451013        5.1752961856        6.1581796321  MEMB      6               0.0000000000
       670         6  PMPE      H12R          -12.4937059584        5.5586033565        5.2844877970  MEMB      6               0.0000000000
       671         6  PMPE      H12S          -12.4400364136        4.2987337326        6.6055336054  MEMB      6               0.0000000000
       672         6  PMPE      C213          -10.4505073665        4.8053374841        5.8118205629  MEMB      6               0.0000000000
       673         6  PMPE      H13R           -9.9187891952        4.3022549964        6.6475870341  MEMB      6               0.0000000000
       674         6  PMPE      H13S           -9.8646956839        5.7440065757        5.7115916612  MEMB      6               0.0000000000
       675         6  PMPE      C214          -10.4401527818        3.9403957637        4.4993148068  MEMB      6               0.0000000000
       676         6  PMPE      H14R          -11.1607060703        4.4400751582        3.8170793891  MEMB      6               0.0000000000
       677         6  PMPE      H14S          -10.8814611572        2.9804594906        4.8429569095  MEMB      6               0.0000000000
       678         6  PMPE      C215           -9.0977814358        3.8216392163        3.7573309747  MEMB      6               0.0000000000
       679         6  PMPE      H15R           -8.4689745752        3.0411909340        4.2367300416  MEMB      6               0.0000000000
       680         6  PMPE      H15S           -8.5896219109        4.8062224968        3.6755340375  MEMB      6               0.0000000000
       681         6  PMPE      C216           -9.2982535435        3.3400657889        2.2313042640  MEMB      6               0.0000000000
       682         6  PMPE      H16R          -10.1950926502        3.8020454684        1.7659277812  MEMB      6               0.0000000000
       683         6  PMPE      H16S           -8.3770594661        3.4866127959        1.6277761089  MEMB      6               0.0000000000
       684         6  PMPE      H16T           -9.5161303933        2.2506426619        2.2283899369  MEMB      6               0.0000000000
       685         6  PMPE      C33            -7.5665080250        3.9688537304       10.1769912653  MEMB      6               0.0000000000
       686         6  PMPE      H3X            -8.4947904796        3.5841721799        9.7030369721  MEMB      6               0.0000000000
       687         6  PMPE      H3Y            -6.8248324991        3.1422411646       10.2078190972  MEMB      6               0.0000000000
       688         6  PMPE      C34            -7.0503748069        5.1630828251        9.3632736566  MEMB      6               0.0000000000
       689         6  PMPE      H4X            -7.7613894793        6.0045545751        9.5071624211  MEMB      6               0.0000000000
       690         6  PMPE      H4Y            -6.8323170855        4.8211438784        8.3289381880  MEMB      6               0.0000000000
       691         6  PMPE      C35            -5.6127793368        5.6053916866        9.8185076943  MEMB      6               0.0000000000
       692         6  PMPE      H5X            -5.1335266315        4.6046268960        9.8742548582  MEMB      6               0.0000000000
       693         6  PMPE      H5Y            -5.6824104806        6.1429793439       10.7882868749  MEMB      6               0.0000000000
       694         6  PMPE      C36            -4.7725065661        6.5938128016        8.9471042848  MEMB      6               0.0000000000
       695         6  PMPE      H6X            -4.9054885663        6.2604534465        7.8956730121  MEMB      6               0.0000000000
       696         6  PMPE      H6Y            -3.7160915372        6.4204606235        9.2441860061  MEMB      6               0.0000000000
       697         6  PMPE      C37            -5.1563053658        8.0641027217        9.2173063276  MEMB      6               0.0000000000
       698         6  PMPE      H7X            -4.8446981329        8.3302554674       10.2499648807  MEMB      6               0.0000000000
       699         6  PMPE      H7Y            -6.2525512744        8.0629194993        9.3977627061  MEMB      6               0.0000000000
       700         6  PMPE      C38            -4.8641045530        9.0330850078        8.0410189278  MEMB      6               0.0000000000
       701         6  PMPE      H8X            -3.8152810411        8.9115738534        7.6952935413  MEMB      6               0.0000000000
       702         6  PMPE      H8Y            -4.8838871658       10.0671789715        8.4467028995  MEMB      6               0.0000000000
       703         6  PMPE      C39            -5.6911230066        8.6690211676        6.7668484658  MEMB      6               0.0000000000
       704         6  PMPE      H9X            -5.5051289592        7.6208299936        6.4490077882  MEMB      6               0.0000000000
       705         6  PMPE      H9Y            -5.2412661797        9.2735203772        5.9504346558  MEMB      6               0.0000000000
       706         6  PMPE      C310           -7.1577518492        8.8408643760        6.8741887206  MEMB      6               0.0000000000
       707         6  PMPE      H10X           -7.3851777179        9.8999739932        7.1209380328  MEMB      6               0.0000000000
       708         6  PMPE      H10Y           -7.6376984466        8.1934497976        7.6389277399  MEMB      6               0.0000000000
       709         6  PMPE      C311           -7.9460157919        8.3536394751        5.6320666305  MEMB      6               0.0000000000
       710         6  PMPE      H11X           -9.0434869586        8.3928526698        5.8004122961  MEMB      6               0.0000000000
       711         6  PMPE      H11Y           -7.5502637541        7.3259572852        5.4851968406  MEMB      6               0.0000000000
       712         6  PMPE      C312           -7.6690333816        9.2204604399        4.4210073707  MEMB      6               0.0000000000
       713         6  PMPE      H12X           -6.6320106881        9.0485675992        4.0613440851  MEMB      6               0.0000000000
       714         6  PMPE      H12Y           -7.6895494152       10.2854390914        4.7367930778  MEMB      6               0.0000000000
       715         6  PMPE      C313           -8.6764341802        8.9739427514        3.2611543113  MEMB      6               0.0000000000
       716         6  PMPE      H13X           -8.5676197814        9.8369585765        2.5700074646  MEMB      6               0.0000000000
       717         6  PMPE      H13Y           -9.6947484951        8.9837364395        3.7052948971  MEMB      6               0.0000000000
       718         6  PMPE      C314           -8.5571049813        7.6893643305        2.3959551551  MEMB      6               0.0000000000
       719         6  PMPE      H14X           -8.5975123120        6.8211823991        3.0880159835  MEMB      6               0.0000000000
       720         6  PMPE      H14Y           -7.6323432872        7.7051407360        1.7804163026  MEMB      6               0.0000000000
       721         6  PMPE      C315           -9.6817890787        7.5631589258        1.3849233418  MEMB      6               0.0000000000
       722         6  PMPE      H15X           -9.5311417308        6.7061356056        0.6941717621  MEMB      6               0.0000000000
       723         6  PMPE      H15Y           -9.7504147258        8.4824353816        0.7648100217  MEMB      6               0.0000000000
       724         6  PMPE      C316          -11.1986014985        7.3106109503        1.8628509002  MEMB      6               0.0000000000
       725         6  PMPE      H16X          -11.2267783440        6.3954343015        2.4921195019  MEMB      6               0.0000000000
       726         6  PMPE      H16Y          -11.9391648897        7.2102490152        1.0407709860  MEMB      6               0.0000000000
       727         6  PMPE      H16Z          -11.4529979704        8.1821248267        2.5032159686  MEMB      6               0.0000000000
       728         7  PMPG      C13            -1.1897279743       11.0267450966       21.9561031328  MEMB      7               0.0000000000
       729         7  PMPG      H13A           -1.0726983549       11.7716086211       22.7720708146  MEMB      7               0.0000000000
       730         7  PMPG      H13B           -1.7328494245       10.1289610466       22.3212387194  MEMB      7               0.0000000000
       731         7  PMPG      OC3             0.1054727626       10.6714211090       21.4824067514  MEMB      7               0.0000000000
       732         7  PMPG      HO3             0.5277112609       11.5263046940       21.3706544182  MEMB      7               0.0000000000
       733         7  PMPG      C12            -1.9948818703       11.7485323515       20.8783298334  MEMB      7               0.0000000000
       734         7  PMPG      H12A           -1.5560356479       12.7668548574       20.7633850334  MEMB      7               0.0000000000
       735         7  PMPG      OC2            -3.3525387962       11.8983102565       21.2959123292  MEMB      7               0.0000000000
       736         7  PMPG      HO2            -3.7952193990       12.2417599954       20.4891949061  MEMB      7               0.0000000000
       737         7  PMPG      C11            -1.9259851988       11.0386511818       19.5042166056  MEMB      7               0.0000000000
       738         7  PMPG      H11A           -2.4866091406       10.0794867256       19.5092611752  MEMB      7               0.0000000000
       739         7  PMPG      H11B           -0.8501248396       10.8444274348       19.3064220129  MEMB      7               0.0000000000
       740         7  PMPG      P              -2.3647134899       11.1893394196       16.9302937666  MEMB      7               0.0000000000
       741         7  PMPG      O13            -3.7171283202       11.2494899909       16.3717047818  MEMB      7               0.0000000000
       742         7  PMPG      O14            -1.7878058520        9.8598325650       16.9589785958  MEMB      7               0.0000000000
       743         7  PMPG      O11            -1.4237001988       12.2265119239       16.2204396130  MEMB      7               0.0000000000
       744         7  PMPG      O12            -2.5123449932       11.8011731065       18.4016145898  MEMB      7               0.0000000000
       745         7  PMPG      C1             -0.4964067468       13.0887664098       16.8438745225  MEMB      7               0.0000000000
       746         7  PMPG      HA             -0.1510167357       12.6922006784       17.8225278977  MEMB      7               0.0000000000
       747         7  PMPG      HB             -1.1347886496       13.9789590772       17.0292028174  MEMB      7               0.0000000000
       748         7  PMPG      C2              0.6678009630       13.3101826589       15.9355372044  MEMB      7               0.0000000000
       749         7  PMPG      HS              1.1252318352       14.2964988640       16.1641381700  MEMB      7               0.0000000000
       750         7  PMPG      O21             0.1502753068       13.2567257946       14.5835838085  MEMB      7               0.0000000000
       751         7  PMPG      C21             0.9174390775       13.7836121480       13.6674212489  MEMB      7               0.0000000000
       752         7  PMPG      O22             2.0120124879       14.2839910240       13.8441022768  MEMB      7               0.0000000000
       753         7  PMPG      C22             0.2350611163       13.6783006703       12.3031861066  MEMB      7               0.0000000000
       754         7  PMPG      H2R            -0.8419233501       13.8885980661       12.4769683474  MEMB      7               0.0000000000
       755         7  PMPG      H2S             0.2306457724       12.6241635070       11.9523350621  MEMB      7               0.0000000000
       756         7  PMPG      C3              1.8355662064       12.2094930867       16.1121577239  MEMB      7               0.0000000000
       757         7  PMPG      HX              2.1446871980       12.2841727771       17.1766707567  MEMB      7               0.0000000000
       758         7  PMPG      HY              2.6544647764       12.5071100614       15.4228460833  MEMB      7               0.0000000000
       759         7  PMPG      O31             1.2415383303       10.8789064662       15.8175289501  MEMB      7               0.0000000000
       760         7  PMPG      C31             1.5179401232       10.3183311590       14.7089954322  MEMB      7               0.0000000000
       761         7  PMPG      O32             2.2328218531       10.7372352268       13.8364490197  MEMB      7               0.0000000000
       762         7  PMPG      C32             0.7683134134        8.9633167644       14.6487302563  MEMB      7               0.0000000000
       763         7  PMPG      H2X            -0.1171677208        8.9079209777       15.3174419384  MEMB      7               0.0000000000
       764         7  PMPG      H2Y             1.4970103609        8.1339641311       14.7732136718  MEMB      7               0.0000000000
       765         7  PMPG      C23             0.7365221503       14.5352177161       11.1444908691  MEMB      7               0.0000000000
       766         7  PMPG      H3R             0.8997960415       15.5685432333       11.5185244104  MEMB      7               0.0000000000
       767         7  PMPG      H3S            -0.0380794477       14.6710154996       10.3597160625  MEMB      7               0.0000000000
       768         7  PMPG      C24             2.0289895335       13.9717052554       10.6507681164  MEMB      7               0.0000000000
       769         7  PMPG      H4R             2.6817159726       13.8110478789       11.5353343018  MEMB      7               0.0000000000
       770         7  PMPG      H4S             2.3349083719       14.7457701497        9.9148618321  MEMB      7               0.0000000000
       771         7  PMPG      C25             1.8802743069       12.6151276087        9.8000459613  MEMB      7               0.0000000000
       772         7  PMPG      H5R             0.8853525084       12.6084835207        9.3056699499  MEMB      7               0.0000000000
       773         7  PMPG      H5S             1.8448717437       11.7485448874       10.4943813953  MEMB      7               0.0000000000
       774         7  PMPG      C26             3.0895560808       12.2718841432        8.9279632885  MEMB      7               0.0000000000
       775         7  PMPG      H6R             3.0271265599       11.2725753264        8.4465007630  MEMB      7               0.0000000000
       776         7  PMPG      H6S             3.9399849006       12.3166714631        9.6414660693  MEMB      7               0.0000000000
       777         7  PMPG      C27             3.4170353686       13.3143518266        7.8571436110  MEMB      7               0.0000000000
       778         7  PMPG      H7R             3.4846703518       14.3792332418        8.1666173395  MEMB      7               0.0000000000
       779         7  PMPG      H7S             2.5914811769       13.1545266705        7.1310327985  MEMB      7               0.0000000000
       780         7  PMPG      C28             4.8485573226       13.1738068913        7.1802642572  MEMB      7               0.0000000000
       781         7  PMPG      H8R             5.1303327559       12.1286543055        6.9301049934  MEMB      7               0.0000000000
       782         7  PMPG      H8S             5.5391348151       13.5635343537        7.9584258568  MEMB      7               0.0000000000
       783         7  PMPG      C29             5.1131422972       14.0151926333        5.9464407342  MEMB      7               0.0000000000
       784         7  PMPG      H9R             5.1128680501       15.1176538391        6.0839189484  MEMB      7               0.0000000000
       785         7  PMPG      C217            5.9818542157       13.4263892013        4.8690114972  MEMB      7               0.0000000000
       786         7  PMPG      H17R            6.6747125038       14.1149214881        4.4012938619  MEMB      7               0.0000000000
       787         7  PMPG      H17S            6.3328448279       12.4098391642        4.7412579439  MEMB      7               0.0000000000
       788         7  PMPG      C210            4.4815708247       13.5902451296        4.5985607739  MEMB      7               0.0000000000
       789         7  PMPG      H10R            4.0882686732       14.4531807501        4.0197888790  MEMB      7               0.0000000000
       790         7  PMPG      C211            3.7917657452       12.2167091359        4.4571920438  MEMB      7               0.0000000000
       791         7  PMPG      H11R            4.3908896664       11.4417061258        4.9813504188  MEMB      7               0.0000000000
       792         7  PMPG      H11S            2.7524398517       12.2972499152        4.8414260595  MEMB      7               0.0000000000
       793         7  PMPG      C212            3.7420972696       11.9590882389        2.9574654305  MEMB      7               0.0000000000
       794         7  PMPG      H12R            3.8211210613       10.8979171083        2.6381037432  MEMB      7               0.0000000000
       795         7  PMPG      H12S            4.6465429527       12.3892333092        2.4765569315  MEMB      7               0.0000000000
       796         7  PMPG      C213            2.4761199493       12.4932977825        2.1913953312  MEMB      7               0.0000000000
       797         7  PMPG      H13R            2.7079533617       12.3773847060        1.1110519604  MEMB      7               0.0000000000
       798         7  PMPG      H13S            2.3086035032       13.5852344748        2.3094355760  MEMB      7               0.0000000000
       799         7  PMPG      C214            1.1237556572       11.7899542087        2.2848562540  MEMB      7               0.0000000000
       800         7  PMPG      H14R            0.7252363028       12.4726217015        3.0655401954  MEMB      7               0.0000000000
       801         7  PMPG      H14S            1.0911201102       10.7431199782        2.6555233742  MEMB      7               0.0000000000
       802         7  PMPG      C215            0.2682101412       11.9074289336        0.9776635713  MEMB      7               0.0000000000
       803         7  PMPG      H15R            0.9277884826       11.6004947757        0.1379787116  MEMB      7               0.0000000000
       804         7  PMPG      H15S            0.0951068610       12.9836854008        0.7631199044  MEMB      7               0.0000000000
       805         7  PMPG      C216           -1.0532226529       11.1599047327        0.9355582583  MEMB      7               0.0000000000
       806         7  PMPG      H16R           -1.7867575579       11.4179447932        1.7290721410  MEMB      7               0.0000000000
       807         7  PMPG      H16S           -0.8859896215       10.0742714779        1.1021575691  MEMB      7               0.0000000000
       808         7  PMPG      H16T           -1.5601637797       11.2995710049       -0.0431271732  MEMB      7               0.0000000000
       809         7  PMPG      C33             0.2199761842        8.7119652395       13.1805619628  MEMB      7               0.0000000000
       810         7  PMPG      H3X            -0.2260594881        7.7005315201       13.0693193659  MEMB      7               0.0000000000
       811         7  PMPG      H3Y             1.1397098415        8.7015087423       12.5574235410  MEMB      7               0.0000000000
       812         7  PMPG      C34            -0.7955921294        9.7045557699       12.6488922578  MEMB      7               0.0000000000
       813         7  PMPG      H4X            -0.6858244768       10.7513935867       13.0044236342  MEMB      7               0.0000000000
       814         7  PMPG      H4Y            -1.8230324844        9.3505315307       12.8798776452  MEMB      7               0.0000000000
       815         7  PMPG      C35            -0.6343434915        9.7953848780       11.1008971726  MEMB      7               0.0000000000
       816         7  PMPG      H5X            -0.3603404511        8.7601685159       10.8049744104  MEMB      7               0.0000000000
       817         7  PMPG      H5Y             0.2391033036       10.4445895638       10.8774142264  MEMB      7               0.0000000000
       818         7  PMPG      C36            -1.9795041678       10.3125519660       10.5432763276  MEMB      7               0.0000000000
       819         7  PMPG      H6X            -2.1233734685       11.2906064684       11.0502593357  MEMB      7               0.0000000000
       820         7  PMPG      H6Y            -2.7195239140        9.6057453130       10.9758445355  MEMB      7               0.0000000000
       821         7  PMPG      C37            -2.1191074404       10.1523662271        9.0113099564  MEMB      7               0.0000000000
       822         7  PMPG      H7X            -3.0751205681       10.5754943957        8.6353812788  MEMB      7               0.0000000000
       823         7  PMPG      H7Y            -2.1606480322        9.0869621143        8.6990446338  MEMB      7               0.0000000000
       824         7  PMPG      C38            -1.0255722103       10.8890722542        8.1023852100  MEMB      7               0.0000000000
       825         7  PMPG      H8X            -0.8405928366       10.2266462288        7.2298629594  MEMB      7               0.0000000000
       826         7  PMPG      H8Y            -0.0337664198       10.8663005260        8.6025090440  MEMB      7               0.0000000000
       827         7  PMPG      C39            -1.4118575317       12.2833972095        7.6808299260  MEMB      7               0.0000000000
       828         7  PMPG      H9X            -0.5324412598       12.8561277947        7.3162371469  MEMB      7               0.0000000000
       829         7  PMPG      H9Y            -1.5309306242       12.8483297109        8.6300372728  MEMB      7               0.0000000000
       830         7  PMPG      C310           -2.4970428090       12.3764127608        6.6585863912  MEMB      7               0.0000000000
       831         7  PMPG      H10X           -3.2623199760       11.6036102217        6.8854091228  MEMB      7               0.0000000000
       832         7  PMPG      H10Y           -2.0739699318       12.0525029141        5.6836951771  MEMB      7               0.0000000000
       833         7  PMPG      C311           -3.1575468285       13.7389743261        6.3970161998  MEMB      7               0.0000000000
       834         7  PMPG      H11X           -2.5287703595       14.5627763116        6.7974051270  MEMB      7               0.0000000000
       835         7  PMPG      H11Y           -4.1228990029       13.7483710360        6.9468594577  MEMB      7               0.0000000000
       836         7  PMPG      C312           -3.4575247833       14.1720637440        4.9557954171  MEMB      7               0.0000000000
       837         7  PMPG      H12X           -4.1132416943       15.0664272717        4.8889365389  MEMB      7               0.0000000000
       838         7  PMPG      H12Y           -4.1038248669       13.3384458351        4.6069425156  MEMB      7               0.0000000000
       839         7  PMPG      C313           -2.1864730825       14.4917471125        4.0704763930  MEMB      7               0.0000000000
       840         7  PMPG      H13X           -2.5867670276       14.8124094881        3.0849503074  MEMB      7               0.0000000000
       841         7  PMPG      H13Y           -1.6714241261       13.5313333781        3.8544868205  MEMB      7               0.0000000000
       842         7  PMPG      C314           -1.3553469595       15.6039434091        4.7571726030  MEMB      7               0.0000000000
       843         7  PMPG      H14X           -0.7851182765       15.0913640972        5.5611769713  MEMB      7               0.0000000000
       844         7  PMPG      H14Y           -1.8847247283       16.4512441360        5.2431378699  MEMB      7               0.0000000000
       845         7  PMPG      C315           -0.2298910276       16.1951716722        3.8526086022  MEMB      7               0.0000000000
       846         7  PMPG      H15X            0.3551835046       15.3884137692        3.3615373071  MEMB      7               0.0000000000
       847         7  PMPG      H15Y            0.4285728688       16.7055250786        4.5876495269  MEMB      7               0.0000000000
       848         7  PMPG      C316           -0.8003287966       17.1249169091        2.7530728004  MEMB      7               0.0000000000
       849         7  PMPG      H16X           -1.3122814318       16.5551845513        1.9483178933  MEMB      7               0.0000000000
       850         7  PMPG      H16Y            0.0062114438       17.7237139048        2.2784615924  MEMB      7               0.0000000000
       851         7  PMPG      H16Z           -1.5395376674       17.8001918678        3.2346272860  MEMB      7               0.0000000000
       852         8  PYPG      C13             6.5663672742       -7.5291267546       20.4810111443  MEMB      8               0.0000000000
       853         8  PYPG      H13A            7.2448020342       -8.1187056371       21.1340381450  MEMB      8               0.0000000000
       854         8  PYPG      H13B            7.1165288790       -6.8566471782       19.7886136871  MEMB      8               0.0000000000
       855         8  PYPG      OC3             5.8740858117       -6.6907832246       21.4030841476  MEMB      8               0.0000000000
       856         8  PYPG      HO3             6.0633175968       -5.7780518689       21.1734909640  MEMB      8               0.0000000000
       857         8  PYPG      C12             5.5497833723       -8.3911845827       19.6938242208  MEMB      8               0.0000000000
       858         8  PYPG      H12A            4.7143762623       -7.7200385195       19.3865182453  MEMB      8               0.0000000000
       859         8  PYPG      OC2             5.0097422718       -9.4088138129       20.5381151952  MEMB      8               0.0000000000
       860         8  PYPG      HO2             4.4958104460       -9.9650821302       19.9126901576  MEMB      8               0.0000000000
       861         8  PYPG      C11             6.2597398976       -8.9981127095       18.3880716917  MEMB      8               0.0000000000
       862         8  PYPG      H11A            6.8582403204       -8.1736271096       17.9449670768  MEMB      8               0.0000000000
       863         8  PYPG      H11B            5.5540721132       -9.3685307250       17.6140274554  MEMB      8               0.0000000000
       864         8  PYPG      P               7.9707416579      -10.8261229537       17.8754858126  MEMB      8               0.0000000000
       865         8  PYPG      O13             7.1769829170      -11.6794857327       17.0507181013  MEMB      8               0.0000000000
       866         8  PYPG      O14             9.1137336467      -11.4728807510       18.6152562891  MEMB      8               0.0000000000
       867         8  PYPG      O11             8.5949825318       -9.6956350212       17.0223488011  MEMB      8               0.0000000000
       868         8  PYPG      O12             7.0774440620      -10.0267714666       18.9320846018  MEMB      8               0.0000000000
       869         8  PYPG      C1              9.9377964074       -9.3648104286       16.7188398701  MEMB      8               0.0000000000
       870         8  PYPG      HA             10.4540717950      -10.2714188072       16.3369473866  MEMB      8               0.0000000000
       871         8  PYPG      HB             10.4789088441       -9.0582134777       17.6394465243  MEMB      8               0.0000000000
       872         8  PYPG      C2             10.0454289683       -8.1187314543       15.8294804175  MEMB      8               0.0000000000
       873         8  PYPG      HS              9.7502909896       -7.1994380115       16.3791294857  MEMB      8               0.0000000000
       874         8  PYPG      O21             9.1283378590       -8.2697103744       14.7583680611  MEMB      8               0.0000000000
       875         8  PYPG      C21             8.7367306597       -7.2512652729       14.0579967239  MEMB      8               0.0000000000
       876         8  PYPG      O22             8.9558413831       -6.0506210634       14.2219139950  MEMB      8               0.0000000000
       877         8  PYPG      C22             7.8603910460       -7.7685142080       12.8971908563  MEMB      8               0.0000000000
       878         8  PYPG      H2R             6.8770952931       -7.2607712886       12.9954133783  MEMB      8               0.0000000000
       879         8  PYPG      H2S             7.6932220417       -8.8518346065       13.0782771251  MEMB      8               0.0000000000
       880         8  PYPG      C3             11.5393462851       -7.9356393246       15.2371061701  MEMB      8               0.0000000000
       881         8  PYPG      HX             12.1958784894       -7.8361038691       16.1278244668  MEMB      8               0.0000000000
       882         8  PYPG      HY             11.5709002969       -6.9995321653       14.6395870775  MEMB      8               0.0000000000
       883         8  PYPG      O31            11.8791230056       -9.1448726056       14.5821034499  MEMB      8               0.0000000000
       884         8  PYPG      C31            11.8671705578       -9.2358833053       13.2434551380  MEMB      8               0.0000000000
       885         8  PYPG      O32            11.8062859060       -8.2626245085       12.4889279181  MEMB      8               0.0000000000
       886         8  PYPG      C32            11.6518923569      -10.7302893939       12.8853586000  MEMB      8               0.0000000000
       887         8  PYPG      H2X            12.3879873132      -11.2937527816       13.4977260338  MEMB      8               0.0000000000
       888         8  PYPG      H2Y            10.5981199524      -10.9480384035       13.1618911131  MEMB      8               0.0000000000
       889         8  PYPG      C23             8.5789259981       -7.4247071135       11.6131643170  MEMB      8               0.0000000000
       890         8  PYPG      H3R             9.4431308127       -8.1005520332       11.4379365386  MEMB      8               0.0000000000
       891         8  PYPG      H3S             8.8224239549       -6.3411163431       11.5838234156  MEMB      8               0.0000000000
       892         8  PYPG      C24             7.6892482914       -7.5774629469       10.3538991398  MEMB      8               0.0000000000
       893         8  PYPG      H4R             8.3657735233       -7.2535234079        9.5343272433  MEMB      8               0.0000000000
       894         8  PYPG      H4S             6.9233021596       -6.7747917597       10.4119218029  MEMB      8               0.0000000000
       895         8  PYPG      C25             7.1774075165       -9.0071004848       10.0098990282  MEMB      8               0.0000000000
       896         8  PYPG      H5R             6.3865759831       -8.7427826721        9.2757038139  MEMB      8               0.0000000000
       897         8  PYPG      H5S             6.6121732154       -9.4692531605       10.8473028818  MEMB      8               0.0000000000
       898         8  PYPG      C26             8.3246978226       -9.8381848405        9.3838190189  MEMB      8               0.0000000000
       899         8  PYPG      H6R             9.1845539630       -9.9317393469       10.0811108004  MEMB      8               0.0000000000
       900         8  PYPG      H6S             8.7874942123       -9.2270344097        8.5796827832  MEMB      8               0.0000000000
       901         8  PYPG      C27             8.0806924889      -11.1684545766        8.7128074351  MEMB      8               0.0000000000
       902         8  PYPG      H7R             7.2043589129      -11.0947088287        8.0338950280  MEMB      8               0.0000000000
       903         8  PYPG      H7S             7.7553691431      -11.8157547634        9.5551179513  MEMB      8               0.0000000000
       904         8  PYPG      C28             9.3328706312      -11.6509299100        7.9843966954  MEMB      8               0.0000000000
       905         8  PYPG      H8R            10.2230746746      -11.9109691232        8.5961466864  MEMB      8               0.0000000000
       906         8  PYPG      H8S             9.6403021177      -10.8109975322        7.3253671512  MEMB      8               0.0000000000
       907         8  PYPG      C29             8.9393244687      -12.8329605850        7.1437391579  MEMB      8               0.0000000000
       908         8  PYPG      H9R             7.9112283637      -12.8970769425        6.7578541249  MEMB      8               0.0000000000
       909         8  PYPG      C210            9.8016962734      -13.8150422737        6.6665260177  MEMB      8               0.0000000000
       910         8  PYPG      H10R            9.4144102576      -14.6415962737        6.0526711469  MEMB      8               0.0000000000
       911         8  PYPG      C211           11.2928961309      -13.7370911757        6.9286891354  MEMB      8               0.0000000000
       912         8  PYPG      H11R           11.6158047898      -14.7971066248        6.8485711949  MEMB      8               0.0000000000
       913         8  PYPG      H11S           11.4407917347      -13.2726939581        7.9270794223  MEMB      8               0.0000000000
       914         8  PYPG      C212           11.9806783232      -12.8899747131        5.8508894261  MEMB      8               0.0000000000
       915         8  PYPG      H12R           13.0775084565      -13.0662108688        5.8659072985  MEMB      8               0.0000000000
       916         8  PYPG      H12S           11.7719703465      -11.8227073411        6.0782707190  MEMB      8               0.0000000000
       917         8  PYPG      C213           11.5801665944      -13.1092100150        4.4050858200  MEMB      8               0.0000000000
       918         8  PYPG      H13R           10.4935443739      -12.8992402824        4.3076891011  MEMB      8               0.0000000000
       919         8  PYPG      H13S           11.7815798320      -14.1558208806        4.0914623925  MEMB      8               0.0000000000
       920         8  PYPG      C214           12.3018653333      -12.1746638110        3.3986121920  MEMB      8               0.0000000000
       921         8  PYPG      H14R           12.3446064602      -11.1301480884        3.7747510736  MEMB      8               0.0000000000
       922         8  PYPG      H14S           13.3561964939      -12.5196175546        3.3376723309  MEMB      8               0.0000000000
       923         8  PYPG      C215           11.6314665748      -12.1088057015        2.0301859013  MEMB      8               0.0000000000
       924         8  PYPG      H15R           12.3984117124      -11.5136046920        1.4899536429  MEMB      8               0.0000000000
       925         8  PYPG      H15S           10.6471394673      -11.5940860909        2.0081636614  MEMB      8               0.0000000000
       926         8  PYPG      C216           11.4677681806      -13.3861658020        1.2605383155  MEMB      8               0.0000000000
       927         8  PYPG      H16R           12.4132931222      -13.9558912270        1.1351715538  MEMB      8               0.0000000000
       928         8  PYPG      H16S           11.0288444451      -13.1513709571        0.2672916314  MEMB      8               0.0000000000
       929         8  PYPG      H16T           10.6679962667      -14.0270628045        1.6894177283  MEMB      8               0.0000000000
       930         8  PYPG      C33            11.7657181969      -11.0181837323       11.3713195703  MEMB      8               0.0000000000
       931         8  PYPG      H3X            11.0460392322      -10.3531538161       10.8477565158  MEMB      8               0.0000000000
       932         8  PYPG      H3Y            11.4212664548      -12.0729742782       11.3157229441  MEMB      8               0.0000000000
       933         8  PYPG      C34            13.1501389272      -10.9562126728       10.7770717863  MEMB      8               0.0000000000
       934         8  PYPG      H4X            13.7793773690      -11.7710836443       11.1946416403  MEMB      8               0.0000000000
       935         8  PYPG      H4Y            13.6365368992      -10.0170205120       11.1171536379  MEMB      8               0.0000000000
       936         8  PYPG      C35            13.1591916667      -10.9486409709        9.2628464165  MEMB      8               0.0000000000
       937         8  PYPG      H5X            12.7265925892      -11.8920902976        8.8665110398  MEMB      8               0.0000000000
       938         8  PYPG      H5Y            14.1643586560      -10.9210641874        8.7904060616  MEMB      8               0.0000000000
       939         8  PYPG      C36            12.3700805684       -9.7153573527        8.6874248093  MEMB      8               0.0000000000
       940         8  PYPG      H6X            12.4857309801       -9.0111036574        9.5388782127  MEMB      8               0.0000000000
       941         8  PYPG      H6Y            11.2683605871       -9.8125708422        8.5821454445  MEMB      8               0.0000000000
       942         8  PYPG      C37            13.0114861365       -9.1898962362        7.4233462603  MEMB      8               0.0000000000
       943         8  PYPG      H7X            14.0476031114       -8.8450663869        7.6279803519  MEMB      8               0.0000000000
       944         8  PYPG      H7Y            13.0852575194      -10.0520061584        6.7264635705  MEMB      8               0.0000000000
       945         8  PYPG      C38            12.2071767545       -8.1127613232        6.8168721734  MEMB      8               0.0000000000
       946         8  PYPG      H8X            12.7819201265       -7.7193308985        5.9513063719  MEMB      8               0.0000000000
       947         8  PYPG      H8Y            12.0769679138       -7.2390503160        7.4906636259  MEMB      8               0.0000000000
       948         8  PYPG      C39            10.7844353988       -8.4443661517        6.2223311732  MEMB      8               0.0000000000
       949         8  PYPG      H9X            10.0827921490       -8.4650746973        7.0834870302  MEMB      8               0.0000000000
       950         8  PYPG      H9Y            10.8142225667       -9.4256189522        5.7021617078  MEMB      8               0.0000000000
       951         8  PYPG      C310           10.1475824470       -7.3691219636        5.3048926087  MEMB      8               0.0000000000
       952         8  PYPG      H10X           10.4701370981       -6.3602352080        5.6401942947  MEMB      8               0.0000000000
       953         8  PYPG      H10Y            9.0406972667       -7.4339321915        5.3750778086  MEMB      8               0.0000000000
       954         8  PYPG      C311           10.6659974314       -7.4474233143        3.8982926834  MEMB      8               0.0000000000
       955         8  PYPG      H11X           11.7252188370       -7.7821682400        3.8804887189  MEMB      8               0.0000000000
       956         8  PYPG      H11Y           10.6393316445       -6.3995521914        3.5300863139  MEMB      8               0.0000000000
       957         8  PYPG      C312            9.8598845808       -8.4097048671        3.0406373946  MEMB      8               0.0000000000
       958         8  PYPG      H12X           10.3941516852       -8.7199828271        2.1172697575  MEMB      8               0.0000000000
       959         8  PYPG      H12Y            9.8239276704       -9.3706906177        3.5969953876  MEMB      8               0.0000000000
       960         8  PYPG      C313            8.4997728313       -7.8523037601        2.6788077586  MEMB      8               0.0000000000
       961         8  PYPG      H13X            7.8211964648       -7.8373115110        3.5583694013  MEMB      8               0.0000000000
       962         8  PYPG      H13Y            8.6271816447       -6.8010053635        2.3428619949  MEMB      8               0.0000000000
       963         8  PYPG      C314            7.7805577772       -8.5723077757        1.5845187863  MEMB      8               0.0000000000
       964         8  PYPG      H14X            6.7744966777       -8.1211002804        1.4482330917  MEMB      8               0.0000000000
       965         8  PYPG      H14Y            8.3001308611       -8.5494671110        0.6027637720  MEMB      8               0.0000000000
       966         8  PYPG      C315            7.4798135015      -10.0924385761        1.8393483939  MEMB      8               0.0000000000
       967         8  PYPG      H15X            8.4071374016      -10.4681159127        2.3223165350  MEMB      8               0.0000000000
       968         8  PYPG      H15Y            6.6612087170      -10.1642344286        2.5870480552  MEMB      8               0.0000000000
       969         8  PYPG      C316            7.1826380612      -10.9644329518        0.6222087669  MEMB      8               0.0000000000
       970         8  PYPG      H16X            8.0948047744      -11.4083690091        0.1692261979  MEMB      8               0.0000000000
       971         8  PYPG      H16Y            6.4634543538      -10.4238381891       -0.0295990690  MEMB      8               0.0000000000
       972         8  PYPG      H16Z            6.5355938519      -11.8050013153        0.9525100770  MEMB      8               0.0000000000
       973         9  PMPE      N             -11.0848791634       -9.9853519369       19.8131513111  MEMB      9               0.0000000000
       974         9  PMPE      HN1           -11.4648412091       -9.2198428379       20.4057937641  MEMB      9               0.0000000000
       975         9  PMPE      HN2           -11.4502038717       -9.9769917097       18.8394635150  MEMB      9               0.0000000000
       976         9  PMPE      HN3           -11.1505703506      -10.9105421031       20.2835849135  MEMB      9               0.0000000000
       977         9  PMPE      C12            -9.5537416897       -9.7469382409       19.8375632677  MEMB      9               0.0000000000
       978         9  PMPE      H12A           -9.1405790102      -10.0312488555       20.8289184663  MEMB      9               0.0000000000
       979         9  PMPE      H12B           -9.3560918625       -8.6896633892       19.5593089321  MEMB      9               0.0000000000
       980         9  PMPE      C11            -8.8490027884      -10.6000045967       18.8333778779  MEMB      9               0.0000000000
       981         9  PMPE      H11A           -8.9655981368      -10.2872939773       17.7736898552  MEMB      9               0.0000000000
       982         9  PMPE      H11B           -9.1628905034      -11.6636770730       18.7670737109  MEMB      9               0.0000000000
       983         9  PMPE      P              -6.4187331266       -9.7569488575       18.7162236021  MEMB      9               0.0000000000
       984         9  PMPE      O13            -5.1333373367      -10.4614919481       18.5751280856  MEMB      9               0.0000000000
       985         9  PMPE      O14            -6.3619621848       -8.5580480688       19.6023470067  MEMB      9               0.0000000000
       986         9  PMPE      O11            -6.9830903344       -9.3276316585       17.3281549592  MEMB      9               0.0000000000
       987         9  PMPE      O12            -7.5127700201      -10.7565708435       19.2940538880  MEMB      9               0.0000000000
       988         9  PMPE      C1             -6.2355289118       -8.5004999316       16.4926812826  MEMB      9               0.0000000000
       989         9  PMPE      HA             -5.4294991260       -9.1501583793       16.0894679011  MEMB      9               0.0000000000
       990         9  PMPE      HB             -5.8647965531       -7.5531306917       16.9391899191  MEMB      9               0.0000000000
       991         9  PMPE      C2             -7.0576433844       -8.0241328973       15.3744504299  MEMB      9               0.0000000000
       992         9  PMPE      HS             -8.1431417900       -8.0468864845       15.6100272900  MEMB      9               0.0000000000
       993         9  PMPE      O21            -6.7869122343       -8.6942358447       14.1608040396  MEMB      9               0.0000000000
       994         9  PMPE      C21            -7.7500996233       -9.4247896893       13.5477621581  MEMB      9               0.0000000000
       995         9  PMPE      O22            -8.8393014199       -9.6321539560       14.1292032713  MEMB      9               0.0000000000
       996         9  PMPE      C22            -7.2840241707      -10.0032290973       12.2041561337  MEMB      9               0.0000000000
       997         9  PMPE      H2R            -6.7613646468      -10.9443743141       12.4787351559  MEMB      9               0.0000000000
       998         9  PMPE      H2S            -6.5587701427       -9.2933460955       11.7520569522  MEMB      9               0.0000000000
       999         9  PMPE      C3             -6.8416238132       -6.5011086232       15.1020878224  MEMB      9               0.0000000000
      1000         9  PMPE      HX             -5.7679491118       -6.2171217318       15.0721716480  MEMB      9               0.0000000000
      1001         9  PMPE      HY             -7.5036478631       -5.9242679686       15.7827493145  MEMB      9               0.0000000000
      1002         9  PMPE      O31            -7.3549799902       -6.1792769482       13.7779775284  MEMB      9               0.0000000000
      1003         9  PMPE      C31            -8.6363859767       -5.8545248691       13.6546801085  MEMB      9               0.0000000000
      1004         9  PMPE      O32            -9.4961223514       -6.0071354882       14.5358160534  MEMB      9               0.0000000000
      1005         9  PMPE      C32            -8.7523535105       -5.4701256255       12.1840276060  MEMB      9               0.0000000000
      1006         9  PMPE      H2X            -8.3066354952       -6.3668817545       11.7028985593  MEMB      9               0.0000000000
      1007         9  PMPE      H2Y            -8.3094819298       -4.4636368146       12.0253901249  MEMB      9               0.0000000000
      1008         9  PMPE      C23            -8.4158833010      -10.1187906366       11.2407144044  MEMB      9               0.0000000000
      1009         9  PMPE      H3R            -8.8709128665       -9.2048301307       10.8025987330  MEMB      9               0.0000000000
      1010         9  PMPE      H3S            -9.1963956544      -10.6586755947       11.8183352917  MEMB      9               0.0000000000
      1011         9  PMPE      C24            -8.1037209402      -11.1259177138       10.0767804332  MEMB      9               0.0000000000
      1012         9  PMPE      H4R            -9.0266979714      -11.1020396605        9.4588291136  MEMB      9               0.0000000000
      1013         9  PMPE      H4S            -7.9682673565      -12.0455517955       10.6852593525  MEMB      9               0.0000000000
      1014         9  PMPE      C25            -6.9703053957      -10.7291221736        9.1602869931  MEMB      9               0.0000000000
      1015         9  PMPE      H5R            -6.8630135317      -11.4604000654        8.3308046207  MEMB      9               0.0000000000
      1016         9  PMPE      H5S            -6.0711058952      -10.7401176159        9.8126980955  MEMB      9               0.0000000000
      1017         9  PMPE      C26            -7.1914382451       -9.4063066553        8.5598437000  MEMB      9               0.0000000000
      1018         9  PMPE      H6R            -7.2234317242       -8.5284333640        9.2400174507  MEMB      9               0.0000000000
      1019         9  PMPE      H6S            -8.1101418424       -9.4304600556        7.9355669999  MEMB      9               0.0000000000
      1020         9  PMPE      C27            -5.9496388808       -9.1803711242        7.7048819966  MEMB      9               0.0000000000
      1021         9  PMPE      H7R            -5.6052686075      -10.1249107444        7.2320451141  MEMB      9               0.0000000000
      1022         9  PMPE      H7S            -5.1517819280       -8.9496527461        8.4427941086  MEMB      9               0.0000000000
      1023         9  PMPE      C28            -5.9940620922       -8.1257233748        6.5105887375  MEMB      9               0.0000000000
      1024         9  PMPE      H8R            -6.6607250536       -8.4908846645        5.7003173293  MEMB      9               0.0000000000
      1025         9  PMPE      H8S            -5.0176248536       -8.3166396851        6.0161775801  MEMB      9               0.0000000000
      1026         9  PMPE      C29            -6.3290861394       -6.7310906389        6.9222026189  MEMB      9               0.0000000000
      1027         9  PMPE      H9R            -5.7860318601       -6.3448519608        7.8111530697  MEMB      9               0.0000000000
      1028         9  PMPE      C217           -7.7691438609       -6.2967789215        6.8137700814  MEMB      9               0.0000000000
      1029         9  PMPE      H17R           -8.0311284106       -5.6836417566        7.6671843630  MEMB      9               0.0000000000
      1030         9  PMPE      H17S           -8.2897165359       -7.1200793980        6.3404104492  MEMB      9               0.0000000000
      1031         9  PMPE      C210           -6.7669484802       -5.7159600208        5.8790135081  MEMB      9               0.0000000000
      1032         9  PMPE      H10R           -6.6125325999       -4.6256012407        6.0259639262  MEMB      9               0.0000000000
      1033         9  PMPE      C211           -6.8715938684       -6.1022669701        4.4405628186  MEMB      9               0.0000000000
      1034         9  PMPE      H11R           -7.5264540191       -5.3883932059        3.8966301323  MEMB      9               0.0000000000
      1035         9  PMPE      H11S           -7.1597303711       -7.1318624604        4.1385175914  MEMB      9               0.0000000000
      1036         9  PMPE      C212           -5.4104775186       -6.0444768894        3.8687362759  MEMB      9               0.0000000000
      1037         9  PMPE      H12R           -4.7663258989       -6.8065256109        4.3572763029  MEMB      9               0.0000000000
      1038         9  PMPE      H12S           -4.9672395995       -5.0686804028        4.1614512966  MEMB      9               0.0000000000
      1039         9  PMPE      C213           -5.2894117872       -6.3014384968        2.3348500635  MEMB      9               0.0000000000
      1040         9  PMPE      H13R           -5.5017523150       -7.3918991717        2.3235208917  MEMB      9               0.0000000000
      1041         9  PMPE      H13S           -4.2099333331       -6.1591799695        2.1139197814  MEMB      9               0.0000000000
      1042         9  PMPE      C214           -6.1390923994       -5.4019191588        1.4121127400  MEMB      9               0.0000000000
      1043         9  PMPE      H14R           -5.9348186791       -4.3628884177        1.7482800338  MEMB      9               0.0000000000
      1044         9  PMPE      H14S           -7.2036314464       -5.6710057648        1.5814343166  MEMB      9               0.0000000000
      1045         9  PMPE      C215           -5.7128063699       -5.5437430670       -0.0594883060  MEMB      9               0.0000000000
      1046         9  PMPE      H15R           -4.6671269464       -5.1685851929       -0.0709791760  MEMB      9               0.0000000000
      1047         9  PMPE      H15S           -6.4398180882       -4.9016349616       -0.6012205649  MEMB      9               0.0000000000
      1048         9  PMPE      C216           -5.9266411672       -6.9922152664       -0.6357992849  MEMB      9               0.0000000000
      1049         9  PMPE      H16R           -5.6009894073       -6.9277038146       -1.6960406153  MEMB      9               0.0000000000
      1050         9  PMPE      H16S           -5.3030614377       -7.8031890659       -0.2024516482  MEMB      9               0.0000000000
      1051         9  PMPE      H16T           -7.0159785670       -7.2103588195       -0.6446639553  MEMB      9               0.0000000000
      1052         9  PMPE      C33           -10.2857434462       -5.3078338252       11.7935132959  MEMB      9               0.0000000000
      1053         9  PMPE      H3X           -10.5678870876       -4.2475276781       11.9680607232  MEMB      9               0.0000000000
      1054         9  PMPE      H3Y           -10.9286348701       -6.0314323491       12.3388731062  MEMB      9               0.0000000000
      1055         9  PMPE      C34           -10.5560069072       -5.5766036742       10.2516199056  MEMB      9               0.0000000000
      1056         9  PMPE      H4X           -10.0985982995       -6.5702197605       10.0571323111  MEMB      9               0.0000000000
      1057         9  PMPE      H4Y           -10.1642274244       -4.6520437088        9.7762055049  MEMB      9               0.0000000000
      1058         9  PMPE      C35           -11.9757518169       -5.8671303072        9.9349458099  MEMB      9               0.0000000000
      1059         9  PMPE      H5X           -12.5944425894       -5.0238892240       10.3097612134  MEMB      9               0.0000000000
      1060         9  PMPE      H5Y           -12.3745027604       -6.7201718387       10.5245552610  MEMB      9               0.0000000000
      1061         9  PMPE      C36           -12.3374137396       -6.1579115834        8.5336946415  MEMB      9               0.0000000000
      1062         9  PMPE      H6X           -12.0984451826       -5.2263950181        7.9773743343  MEMB      9               0.0000000000
      1063         9  PMPE      H6Y           -13.4309398558       -6.3532097201        8.5531854251  MEMB      9               0.0000000000
      1064         9  PMPE      C37           -11.5389580605       -7.3393208368        7.9505275938  MEMB      9               0.0000000000
      1065         9  PMPE      H7X           -11.6581434785       -8.3293931706        8.4402956110  MEMB      9               0.0000000000
      1066         9  PMPE      H7Y           -10.4442616606       -7.1852670382        8.0611091571  MEMB      9               0.0000000000
      1067         9  PMPE      C38           -11.9238024389       -7.5065468195        6.4877126174  MEMB      9               0.0000000000
      1068         9  PMPE      H8X           -11.7078966697       -6.5419719817        5.9804641841  MEMB      9               0.0000000000
      1069         9  PMPE      H8Y           -13.0343681565       -7.4872840403        6.5120863192  MEMB      9               0.0000000000
      1070         9  PMPE      C39           -11.5848030410       -8.8061854342        5.7437756632  MEMB      9               0.0000000000
      1071         9  PMPE      H9X           -11.7959687698       -9.6384401022        6.4488172622  MEMB      9               0.0000000000
      1072         9  PMPE      H9Y           -10.4831357149       -8.8994229582        5.6344280710  MEMB      9               0.0000000000
      1073         9  PMPE      C310          -12.4154862899       -9.0243078787        4.4194157470  MEMB      9               0.0000000000
      1074         9  PMPE      H10X          -12.4839113249       -8.0650001470        3.8632078824  MEMB      9               0.0000000000
      1075         9  PMPE      H10Y          -13.3741650964       -9.3240874543        4.8941668545  MEMB      9               0.0000000000
      1076         9  PMPE      C311          -11.8285469053      -10.1964614459        3.5417651020  MEMB      9               0.0000000000
      1077         9  PMPE      H11X          -11.5145839629      -10.9701061445        4.2747197386  MEMB      9               0.0000000000
      1078         9  PMPE      H11Y          -10.9275992159       -9.8137352877        3.0162793753  MEMB      9               0.0000000000
      1079         9  PMPE      C312          -12.8043301400      -10.7696595938        2.4957580813  MEMB      9               0.0000000000
      1080         9  PMPE      H12X          -13.8056812478      -10.8515943320        2.9699980880  MEMB      9               0.0000000000
      1081         9  PMPE      H12Y          -12.4953615114      -11.8214501162        2.3152133423  MEMB      9               0.0000000000
      1082         9  PMPE      C313          -13.0104644985       -9.8539174670        1.2103966671  MEMB      9               0.0000000000
      1083         9  PMPE      H13X          -13.0053495509       -8.8060735755        1.5796092234  MEMB      9               0.0000000000
      1084         9  PMPE      H13Y          -13.9995918479      -10.0407934502        0.7402629729  MEMB      9               0.0000000000
      1085         9  PMPE      C314          -11.8674435403      -10.0941793007        0.1325797995  MEMB      9               0.0000000000
      1086         9  PMPE      H14X          -12.2416031140      -11.0178367619       -0.3585237919  MEMB      9               0.0000000000
      1087         9  PMPE      H14Y          -10.9784237219      -10.4489739700        0.6965696195  MEMB      9               0.0000000000
      1088         9  PMPE      C315          -11.5970738198       -9.0262130375       -0.7385614760  MEMB      9               0.0000000000
      1089         9  PMPE      H15X          -12.5648618834       -8.6347466663       -1.1186412276  MEMB      9               0.0000000000
      1090         9  PMPE      H15Y          -11.0376380380       -9.4105955554       -1.6181078423  MEMB      9               0.0000000000
      1091         9  PMPE      C316          -10.8698965152       -7.8248227397       -0.2325847117  MEMB      9               0.0000000000
      1092         9  PMPE      H16X          -10.5435198366       -7.2726556562       -1.1397295222  MEMB      9               0.0000000000
      1093         9  PMPE      H16Y           -9.9859082146       -8.1670370480        0.3468747740  MEMB      9               0.0000000000
      1094         9  PMPE      H16Z          -11.5136802469       -7.1047932490        0.3164338612  MEMB      9               0.0000000000
      1095        10  POPE      N              12.0901073469        5.5133349566       19.6837045515  MEMB      10              0.0000000000
      1096        10  POPE      HN1            11.8456680456        6.3592846912       20.2370749674  MEMB      10              0.0000000000
      1097        10  POPE      HN2            12.4792276849        5.8521528450       18.7807162917  MEMB      10              0.0000000000
      1098        10  POPE      HN3            11.2042468695        5.0201549831       19.4521346044  MEMB      10              0.0000000000
      1099        10  POPE      C12            13.1656046599        4.6970324131       20.3922925592  MEMB      10              0.0000000000
      1100        10  POPE      H12A           12.5803101305        4.0087742779       21.0388621914  MEMB      10              0.0000000000
      1101        10  POPE      H12B           13.7271988747        5.4135574656       21.0291008752  MEMB      10              0.0000000000
      1102        10  POPE      C11            14.1961464190        4.0703800018       19.4217819376  MEMB      10              0.0000000000
      1103        10  POPE      H11A           14.8817025194        3.4686190164       20.0559881326  MEMB      10              0.0000000000
      1104        10  POPE      H11B           14.7199599404        4.9503540296       18.9909852615  MEMB      10              0.0000000000
      1105        10  POPE      P              12.9508958888        2.0091962071       18.5057367020  MEMB      10              0.0000000000
      1106        10  POPE      O13            11.9933473271        1.7091830440       17.4361392155  MEMB      10              0.0000000000
      1107        10  POPE      O14            12.5840710899        1.7891550392       19.9588131037  MEMB      10              0.0000000000
      1108        10  POPE      O11            14.1692371500        1.0094477608       18.2791095713  MEMB      10              0.0000000000
      1109        10  POPE      O12            13.6478389179        3.4693854544       18.3224223559  MEMB      10              0.0000000000
      1110        10  POPE      C1             15.3501452685        1.4162374840       17.4366671979  MEMB      10              0.0000000000
      1111        10  POPE      HA             16.2219046520        0.7869891928       17.7166725282  MEMB      10              0.0000000000
      1112        10  POPE      HB             15.6236548226        2.4391476468       17.7730722012  MEMB      10              0.0000000000
      1113        10  POPE      C2             14.9383599993        1.3708480988       15.9636523644  MEMB      10              0.0000000000
      1114        10  POPE      HS             14.0979811849        2.0973930273       15.9783814406  MEMB      10              0.0000000000
      1115        10  POPE      O21            14.4250302111        0.0320263246       15.7099840558  MEMB      10              0.0000000000
      1116        10  POPE      C21            13.5206976325       -0.1041282878       14.8361007467  MEMB      10              0.0000000000
      1117        10  POPE      O22            12.9963088015        0.7883132526       14.1603880940  MEMB      10              0.0000000000
      1118        10  POPE      C22            13.2718865499       -1.6365701354       14.6889201006  MEMB      10              0.0000000000
      1119        10  POPE      H2R            12.3596339408       -1.6892320510       14.0569843934  MEMB      10              0.0000000000
      1120        10  POPE      H2S            13.2155625288       -2.1448076759       15.6752483463  MEMB      10              0.0000000000
      1121        10  POPE      C3             16.1573120587        1.6241909468       15.0268834136  MEMB      10              0.0000000000
      1122        10  POPE      HX             16.9385960084        0.8357032459       14.9799411036  MEMB      10              0.0000000000
      1123        10  POPE      HY             16.6772970982        2.5247325915       15.4179860740  MEMB      10              0.0000000000
      1124        10  POPE      O31            15.8111179662        1.9551681495       13.6580697927  MEMB      10              0.0000000000
      1125        10  POPE      C31            15.6550991680        3.2027125597       13.2761398733  MEMB      10              0.0000000000
      1126        10  POPE      O32            15.4867147872        4.1397875632       13.9911403803  MEMB      10              0.0000000000
      1127        10  POPE      C32            15.7170506727        3.3250134147       11.7378762682  MEMB      10              0.0000000000
      1128        10  POPE      H2X            15.3581865446        4.2776207883       11.2928182065  MEMB      10              0.0000000000
      1129        10  POPE      H2Y            15.1974503797        2.4642253998       11.2652448526  MEMB      10              0.0000000000
      1130        10  POPE      C23            14.4242280439       -2.1981828926       13.7815864511  MEMB      10              0.0000000000
      1131        10  POPE      H3R            14.1433057624       -3.2097597840       13.4181091732  MEMB      10              0.0000000000
      1132        10  POPE      H3S            15.3815092195       -2.3466818165       14.3255368844  MEMB      10              0.0000000000
      1133        10  POPE      C24            14.5619312177       -1.4938693635       12.3928772963  MEMB      10              0.0000000000
      1134        10  POPE      H4R            15.1479783109       -0.5500637911       12.3828340112  MEMB      10              0.0000000000
      1135        10  POPE      H4S            13.5203992807       -1.3030755435       12.0565294710  MEMB      10              0.0000000000
      1136        10  POPE      C25            15.1663426908       -2.4171595189       11.3857229092  MEMB      10              0.0000000000
      1137        10  POPE      H5R            14.6224583267       -3.3847606472       11.4332504845  MEMB      10              0.0000000000
      1138        10  POPE      H5S            16.2071749762       -2.6000328995       11.7285728663  MEMB      10              0.0000000000
      1139        10  POPE      C26            15.1652583678       -1.8231593144        9.9385208767  MEMB      10              0.0000000000
      1140        10  POPE      H6R            15.4825625520       -0.7588025356        9.9105262134  MEMB      10              0.0000000000
      1141        10  POPE      H6S            14.1073677363       -1.9215022556        9.6136874617  MEMB      10              0.0000000000
      1142        10  POPE      C27            16.0542220655       -2.5481362023        8.8087484112  MEMB      10              0.0000000000
      1143        10  POPE      H7R            15.6289183701       -3.5687117033        8.6998289933  MEMB      10              0.0000000000
      1144        10  POPE      H7S            17.1151455385       -2.5348979821        9.1382734019  MEMB      10              0.0000000000
      1145        10  POPE      C28            15.8440990438       -1.9163994143        7.4265882582  MEMB      10              0.0000000000
      1146        10  POPE      H8R            16.3919063541       -2.6107203101        6.7541695680  MEMB      10              0.0000000000
      1147        10  POPE      H8S            16.3152652472       -0.9146361473        7.3328123621  MEMB      10              0.0000000000
      1148        10  POPE      C29            14.4107574229       -1.8409837498        6.9090249609  MEMB      10              0.0000000000
      1149        10  POPE      H91            14.0399730638       -2.8232472812        6.5808828984  MEMB      10              0.0000000000
      1150        10  POPE      C210           13.6138866006       -0.7509400894        6.6860747706  MEMB      10              0.0000000000
      1151        10  POPE      H101           12.6379120512       -0.9527333805        6.2205068237  MEMB      10              0.0000000000
      1152        10  POPE      C211           14.0368071026        0.6707109250        7.0397805000  MEMB      10              0.0000000000
      1153        10  POPE      H11R           14.8348314984        0.7128737618        7.8115969772  MEMB      10              0.0000000000
      1154        10  POPE      H11S           13.2228172871        1.2787445395        7.4892651179  MEMB      10              0.0000000000
      1155        10  POPE      C212           14.5147949571        1.4556835049        5.7186673359  MEMB      10              0.0000000000
      1156        10  POPE      H12R           15.3949194659        0.9162124179        5.3079694932  MEMB      10              0.0000000000
      1157        10  POPE      H12S           14.8131663788        2.4900147782        5.9933562838  MEMB      10              0.0000000000
      1158        10  POPE      C213           13.4695868124        1.5692801542        4.6449950536  MEMB      10              0.0000000000
      1159        10  POPE      H13R           12.6188076424        2.1505465509        5.0604771422  MEMB      10              0.0000000000
      1160        10  POPE      H13S           12.9495103599        0.6627244304        4.2681680333  MEMB      10              0.0000000000
      1161        10  POPE      C214           14.1165597199        2.2445109607        3.4106772822  MEMB      10              0.0000000000
      1162        10  POPE      H14R           15.1032432707        1.8067328617        3.1477563223  MEMB      10              0.0000000000
      1163        10  POPE      H14S           14.2660151568        3.3180714556        3.6545046586  MEMB      10              0.0000000000
      1164        10  POPE      C215           13.1448611721        2.3990466972        2.2436157392  MEMB      10              0.0000000000
      1165        10  POPE      H15R           12.4411597635        3.2329130998        2.4528822820  MEMB      10              0.0000000000
      1166        10  POPE      H15S           12.5248864066        1.4856975468        2.3690972567  MEMB      10              0.0000000000
      1167        10  POPE      C216           13.9389389605        2.5528979518        0.9259946958  MEMB      10              0.0000000000
      1168        10  POPE      H16R           14.7917307879        3.2490428767        1.0758260321  MEMB      10              0.0000000000
      1169        10  POPE      H16S           13.2303373887        2.9336715800        0.1596949634  MEMB      10              0.0000000000
      1170        10  POPE      C217           14.6203707938        1.2427202348        0.3791706684  MEMB      10              0.0000000000
      1171        10  POPE      H17R           13.8555291580        0.4472953510        0.5081559500  MEMB      10              0.0000000000
      1172        10  POPE      H17S           15.5250051596        0.8417343406        0.8843120289  MEMB      10              0.0000000000
      1173        10  POPE      C218           14.9131835682        1.3821656405       -1.1109980322  MEMB      10              0.0000000000
      1174        10  POPE      H18R           14.1019764766        2.0074918839       -1.5413824341  MEMB      10              0.0000000000
      1175        10  POPE      H18S           15.0509884368        0.4069102804       -1.6250097680  MEMB      10              0.0000000000
      1176        10  POPE      H18T           15.7596469976        2.0464354237       -1.3877035879  MEMB      10              0.0000000000
      1177        10  POPE      C33            17.2193875018        3.2232832341       11.3229108181  MEMB      10              0.0000000000
      1178        10  POPE      H3X            17.8837940413        3.4573917571       12.1820251082  MEMB      10              0.0000000000
      1179        10  POPE      H3Y            17.3922629711        3.9688302398       10.5175569860  MEMB      10              0.0000000000
      1180        10  POPE      C34            17.6023201329        1.8480908390       10.6823487631  MEMB      10              0.0000000000
      1181        10  POPE      H4X            16.8980157912        1.6494407316        9.8463974917  MEMB      10              0.0000000000
      1182        10  POPE      H4Y            17.6250150332        0.9905414740       11.3883334457  MEMB      10              0.0000000000
      1183        10  POPE      C35            18.9941730379        1.7173364261        9.9890815733  MEMB      10              0.0000000000
      1184        10  POPE      H5X            19.2080223760        0.6467457815        9.7831079351  MEMB      10              0.0000000000
      1185        10  POPE      H5Y            19.7161609431        2.2494831862       10.6447302427  MEMB      10              0.0000000000
      1186        10  POPE      C36            19.0393248508        2.4781055251        8.6445247493  MEMB      10              0.0000000000
      1187        10  POPE      H6X            18.7650426749        3.5207188687        8.9129405812  MEMB      10              0.0000000000
      1188        10  POPE      H6Y            18.2664644973        2.0586347392        7.9655163232  MEMB      10              0.0000000000
      1189        10  POPE      C37            20.4247237751        2.4108454277        7.9540023269  MEMB      10              0.0000000000
      1190        10  POPE      H7X            20.5218058596        1.4268846090        7.4473293789  MEMB      10              0.0000000000
      1191        10  POPE      H7Y            21.3380653935        2.6194137197        8.5511852741  MEMB      10              0.0000000000
      1192        10  POPE      C38            20.3288713864        3.3549560352        6.7157246662  MEMB      10              0.0000000000
      1193        10  POPE      H8X            20.4395490894        4.4086905405        7.0499620334  MEMB      10              0.0000000000
      1194        10  POPE      H8Y            19.3213043408        3.3066657740        6.2501092196  MEMB      10              0.0000000000
      1195        10  POPE      C39            21.3029633449        2.9042454769        5.6594478912  MEMB      10              0.0000000000
      1196        10  POPE      H9X            21.4109660207        1.8329346072        5.3856799844  MEMB      10              0.0000000000
      1197        10  POPE      H9Y            22.3516897557        3.2433589670        5.7990759185  MEMB      10              0.0000000000
      1198        10  POPE      C310           20.8372134696        3.5819938842        4.3305697197  MEMB      10              0.0000000000
      1199        10  POPE      H10X           21.5858959427        3.2733958673        3.5699377263  MEMB      10              0.0000000000
      1200        10  POPE      H10Y           20.9496985892        4.6848226166        4.4043041010  MEMB      10              0.0000000000
      1201        10  POPE      C311           19.4934503651        3.0520487648        3.7350461606  MEMB      10              0.0000000000
      1202        10  POPE      H11X           19.2525077183        3.6862025982        2.8552069916  MEMB      10              0.0000000000
      1203        10  POPE      H11Y           18.5673728541        3.2294916583        4.3225966310  MEMB      10              0.0000000000
      1204        10  POPE      C312           19.5202744037        1.5756538000        3.3413565612  MEMB      10              0.0000000000
      1205        10  POPE      H12X           19.7960624884        0.8261175240        4.1136627459  MEMB      10              0.0000000000
      1206        10  POPE      H12Y           20.1586774019        1.6271162093        2.4335480141  MEMB      10              0.0000000000
      1207        10  POPE      C313           18.1380871939        1.0019675089        2.9072204216  MEMB      10              0.0000000000
      1208        10  POPE      H13X           17.6914503627        1.8529539468        2.3498527496  MEMB      10              0.0000000000
      1209        10  POPE      H13Y           17.4068973395        0.7147286235        3.6928260654  MEMB      10              0.0000000000
      1210        10  POPE      C314           18.2567869244       -0.4206639118        2.2590618900  MEMB      10              0.0000000000
      1211        10  POPE      H14X           17.3046022487       -0.8073721776        1.8370170510  MEMB      10              0.0000000000
      1212        10  POPE      H14Y           18.5443158629       -1.1161341863        3.0763558401  MEMB      10              0.0000000000
      1213        10  POPE      C315           19.1917463335       -0.3933269856        1.0153197283  MEMB      10              0.0000000000
      1214        10  POPE      H15X           19.1578482908       -1.3875833468        0.5207217742  MEMB      10              0.0000000000
      1215        10  POPE      H15Y           20.2343154023       -0.3805541306        1.3989961596  MEMB      10              0.0000000000
      1216        10  POPE      C316           18.9076873317        0.8088107720        0.0611728758  MEMB      10              0.0000000000
      1217        10  POPE      H16X           17.8040302837        0.8296201637       -0.0646404402  MEMB      10              0.0000000000
      1218        10  POPE      H16Y           19.4697341350        0.6784248565       -0.8882602221  MEMB      10              0.0000000000
      1219        10  POPE      H16Z           19.3010449357        1.6947291769        0.6040734096  MEMB      10              0.0000000000
      1220        11  PMPE      N               0.0181333461      -11.0036295932       19.6412077573  MEMB      11              0.0000000000
      1221        11  PMPE      HN1            -0.5774208714      -10.1654646783       19.4850195899  MEMB      11              0.0000000000
      1222        11  PMPE      HN2             0.9838865065      -10.8169762304       19.9789671060  MEMB      11              0.0000000000
      1223        11  PMPE      HN3             0.1657813072      -11.4778765435       18.7274846204  MEMB      11              0.0000000000
      1224        11  PMPE      C12            -0.6862324779      -12.1030995707       20.4450300776  MEMB      11              0.0000000000
      1225        11  PMPE      H12A           -1.6208057288      -12.3495511873       19.8971657640  MEMB      11              0.0000000000
      1226        11  PMPE      H12B           -0.7848768181      -11.7180134729       21.4824782939  MEMB      11              0.0000000000
      1227        11  PMPE      C11             0.1137042450      -13.4063807526       20.4870588553  MEMB      11              0.0000000000
      1228        11  PMPE      H11A           -0.6002278632      -14.1489511711       20.9032451564  MEMB      11              0.0000000000
      1229        11  PMPE      H11B            0.8998538653      -13.4386785915       21.2714354895  MEMB      11              0.0000000000
      1230        11  PMPE      P              -0.2970553954      -14.6611601983       18.1800891917  MEMB      11              0.0000000000
      1231        11  PMPE      O13             0.4706437136      -14.8210730920       16.9475460134  MEMB      11              0.0000000000
      1232        11  PMPE      O14            -1.7094262767      -14.2491067840       18.1044574936  MEMB      11              0.0000000000
      1233        11  PMPE      O11            -0.1590274343      -16.0519910293       18.9972645775  MEMB      11              0.0000000000
      1234        11  PMPE      O12             0.5583399230      -13.7511398014       19.1973460064  MEMB      11              0.0000000000
      1235        11  PMPE      C1              1.0413100455      -16.8163460068       19.1026576515  MEMB      11              0.0000000000
      1236        11  PMPE      HA              1.1596503739      -17.1985927148       20.1390958028  MEMB      11              0.0000000000
      1237        11  PMPE      HB              1.9505788642      -16.2324178887       18.8446288764  MEMB      11              0.0000000000
      1238        11  PMPE      C2              0.9559491337      -18.0869406921       18.1646103233  MEMB      11              0.0000000000
      1239        11  PMPE      HS              1.5541888956      -18.9370949319       18.5566147050  MEMB      11              0.0000000000
      1240        11  PMPE      O21             1.3941293152      -17.9448318044       16.7718244991  MEMB      11              0.0000000000
      1241        11  PMPE      C21             2.6573930013      -17.5025422361       16.6003531950  MEMB      11              0.0000000000
      1242        11  PMPE      O22             3.4687242539      -17.2535441520       17.4521940433  MEMB      11              0.0000000000
      1243        11  PMPE      C22             2.9808130481      -17.3925094660       15.0607558670  MEMB      11              0.0000000000
      1244        11  PMPE      H2R             2.0291182843      -17.5812483397       14.5194837972  MEMB      11              0.0000000000
      1245        11  PMPE      H2S             3.7620973205      -18.1604333586       14.8757989250  MEMB      11              0.0000000000
      1246        11  PMPE      C3             -0.4696584603      -18.7078159078       18.0759590468  MEMB      11              0.0000000000
      1247        11  PMPE      HX             -1.0138939782      -18.6482420056       19.0426956848  MEMB      11              0.0000000000
      1248        11  PMPE      HY             -0.4536080138      -19.7467631275       17.6827009058  MEMB      11              0.0000000000
      1249        11  PMPE      O31            -1.2184047852      -17.7825581801       17.2675118561  MEMB      11              0.0000000000
      1250        11  PMPE      C31            -1.4266244203      -17.9833313506       15.9506618579  MEMB      11              0.0000000000
      1251        11  PMPE      O32            -0.8234462050      -18.8590172143       15.3609844032  MEMB      11              0.0000000000
      1252        11  PMPE      C32            -2.2716037858      -16.9741220562       15.3534149925  MEMB      11              0.0000000000
      1253        11  PMPE      H2X            -2.6020018327      -16.2157605824       16.0950660933  MEMB      11              0.0000000000
      1254        11  PMPE      H2Y            -3.2089848312      -17.4194740527       14.9568050138  MEMB      11              0.0000000000
      1255        11  PMPE      C23             3.6632498704      -16.0377244002       14.7466443151  MEMB      11              0.0000000000
      1256        11  PMPE      H3R             4.5957392213      -16.0280250607       15.3505403196  MEMB      11              0.0000000000
      1257        11  PMPE      H3S             3.0160033561      -15.1637787781       14.9738266631  MEMB      11              0.0000000000
      1258        11  PMPE      C24             4.0971324078      -15.7885503182       13.3031802069  MEMB      11              0.0000000000
      1259        11  PMPE      H4R             4.9429492949      -16.4737941735       13.0810179278  MEMB      11              0.0000000000
      1260        11  PMPE      H4S             4.5216535141      -14.7624304871       13.2688153356  MEMB      11              0.0000000000
      1261        11  PMPE      C25             3.0034912112      -15.9766352454       12.2367358578  MEMB      11              0.0000000000
      1262        11  PMPE      H5R             2.1191010739      -15.3493092362       12.4788870871  MEMB      11              0.0000000000
      1263        11  PMPE      H5S             2.6992043502      -17.0450545279       12.2512555757  MEMB      11              0.0000000000
      1264        11  PMPE      C26             3.4243980416      -15.5086305433       10.8033793879  MEMB      11              0.0000000000
      1265        11  PMPE      H6R             3.2050095839      -14.4195610602       10.7925612417  MEMB      11              0.0000000000
      1266        11  PMPE      H6S             2.6983484607      -16.1096410128       10.2151967198  MEMB      11              0.0000000000
      1267        11  PMPE      C27             4.8285362045      -15.9090396315       10.3499020707  MEMB      11              0.0000000000
      1268        11  PMPE      H7R             5.1413317413      -16.8951970725       10.7548386936  MEMB      11              0.0000000000
      1269        11  PMPE      H7S             5.6051874812      -15.2720070624       10.8245841188  MEMB      11              0.0000000000
      1270        11  PMPE      C28             4.9926949048      -16.1422693425        8.8263100197  MEMB      11              0.0000000000
      1271        11  PMPE      H8R             4.0434803597      -16.5594676566        8.4272386803  MEMB      11              0.0000000000
      1272        11  PMPE      H8S             5.8047991762      -16.8746407938        8.6302488546  MEMB      11              0.0000000000
      1273        11  PMPE      C29             5.3125629830      -14.8108808467        8.1884910257  MEMB      11              0.0000000000
      1274        11  PMPE      H9R             6.3036724363      -14.3233721388        8.3083176313  MEMB      11              0.0000000000
      1275        11  PMPE      C217            4.2090481464      -13.8407770882        8.1791047897  MEMB      11              0.0000000000
      1276        11  PMPE      H17R            4.6445803388      -12.8811007890        8.4285487071  MEMB      11              0.0000000000
      1277        11  PMPE      H17S            3.2174825219      -14.2050778346        8.4177921803  MEMB      11              0.0000000000
      1278        11  PMPE      C210            4.7404456972      -14.3768089338        6.7940486543  MEMB      11              0.0000000000
      1279        11  PMPE      H10R            5.1901328654      -13.5294458420        6.2336225984  MEMB      11              0.0000000000
      1280        11  PMPE      C211            3.6935229155      -15.1740513931        6.0845530962  MEMB      11              0.0000000000
      1281        11  PMPE      H11R            2.6987241446      -14.6874808731        6.1736922502  MEMB      11              0.0000000000
      1282        11  PMPE      H11S            3.6824294286      -16.1536293295        6.6085996599  MEMB      11              0.0000000000
      1283        11  PMPE      C212            3.7973954897      -15.5128250699        4.6168990696  MEMB      11              0.0000000000
      1284        11  PMPE      H12R            3.1921538912      -16.4364338451        4.4946254296  MEMB      11              0.0000000000
      1285        11  PMPE      H12S            4.8536766694      -15.6508840942        4.3014157962  MEMB      11              0.0000000000
      1286        11  PMPE      C213            3.3395335498      -14.3674108314        3.6505275609  MEMB      11              0.0000000000
      1287        11  PMPE      H13R            4.0191350804      -13.5477977362        3.9678555573  MEMB      11              0.0000000000
      1288        11  PMPE      H13S            2.2728672037      -14.1679297952        3.8887530972  MEMB      11              0.0000000000
      1289        11  PMPE      C214            3.5453455334      -14.8494281218        2.1605153264  MEMB      11              0.0000000000
      1290        11  PMPE      H14R            4.5584705118      -15.2810574648        2.0135675089  MEMB      11              0.0000000000
      1291        11  PMPE      H14S            3.4247392096      -13.9065760733        1.5853600226  MEMB      11              0.0000000000
      1292        11  PMPE      C215            2.4707903406      -15.8489360790        1.5419315368  MEMB      11              0.0000000000
      1293        11  PMPE      H15R            1.5372567066      -15.2652153391        1.6906133220  MEMB      11              0.0000000000
      1294        11  PMPE      H15S            2.4828209044      -16.8035305017        2.1101950812  MEMB      11              0.0000000000
      1295        11  PMPE      C216            2.6256850462      -16.0183352680       -0.0074608060  MEMB      11              0.0000000000
      1296        11  PMPE      H16R            3.6561389851      -16.4120134505       -0.1397619289  MEMB      11              0.0000000000
      1297        11  PMPE      H16S            1.9888776535      -16.8317106057       -0.4163841506  MEMB      11              0.0000000000
      1298        11  PMPE      H16T            2.6525808992      -15.0802381321       -0.6020813459  MEMB      11              0.0000000000
      1299        11  PMPE      C33            -1.6492753293      -16.2229760095       14.1922781244  MEMB      11              0.0000000000
      1300        11  PMPE      H3X            -0.6915976793      -15.7580773858       14.5101514927  MEMB      11              0.0000000000
      1301        11  PMPE      H3Y            -2.3029094238      -15.3464855946       13.9951787485  MEMB      11              0.0000000000
      1302        11  PMPE      C34            -1.6649965794      -16.9725702990       12.8997371109  MEMB      11              0.0000000000
      1303        11  PMPE      H4X            -2.6255576931      -17.4978102591       12.7106178118  MEMB      11              0.0000000000
      1304        11  PMPE      H4Y            -0.9412519501      -17.8141034303       12.8513989534  MEMB      11              0.0000000000
      1305        11  PMPE      C35            -1.3186441226      -16.1176223667       11.6903544303  MEMB      11              0.0000000000
      1306        11  PMPE      H5X            -0.2781192499      -15.8038574166       11.9209632621  MEMB      11              0.0000000000
      1307        11  PMPE      H5Y            -1.9601010438      -15.2120634306       11.7434323310  MEMB      11              0.0000000000
      1308        11  PMPE      C36            -1.4531112875      -16.7847252794       10.3175801100  MEMB      11              0.0000000000
      1309        11  PMPE      H6X            -2.4928845426      -17.0431835988       10.0236546959  MEMB      11              0.0000000000
      1310        11  PMPE      H6Y            -0.9515166626      -17.7694266562       10.2031830677  MEMB      11              0.0000000000
      1311        11  PMPE      C37            -0.7834268429      -15.9174831147        9.2258340930  MEMB      11              0.0000000000
      1312        11  PMPE      H7X             0.1694613403      -15.5114260337        9.6276332759  MEMB      11              0.0000000000
      1313        11  PMPE      H7Y            -1.4923602594      -15.0806920699        9.0483080205  MEMB      11              0.0000000000
      1314        11  PMPE      C38            -0.6517996288      -16.6292094449        7.8270027351  MEMB      11              0.0000000000
      1315        11  PMPE      H8X            -1.6032120869      -17.0500653611        7.4371108738  MEMB      11              0.0000000000
      1316        11  PMPE      H8Y             0.1350389631      -17.4134001168        7.8428350075  MEMB      11              0.0000000000
      1317        11  PMPE      C39            -0.2742799082      -15.6037426180        6.6889682161  MEMB      11              0.0000000000
      1318        11  PMPE      H9X             0.0379126318      -16.2066246853        5.8095419255  MEMB      11              0.0000000000
      1319        11  PMPE      H9Y             0.6253958552      -15.1304066813        7.1371394768  MEMB      11              0.0000000000
      1320        11  PMPE      C310           -1.4245737456      -14.6930612731        6.2629863014  MEMB      11              0.0000000000
      1321        11  PMPE      H10X           -1.7837344626      -14.1169921857        7.1424566775  MEMB      11              0.0000000000
      1322        11  PMPE      H10Y           -2.3602715764      -15.2401598021        6.0191141995  MEMB      11              0.0000000000
      1323        11  PMPE      C311           -1.0069901237      -13.8312086083        5.0813356551  MEMB      11              0.0000000000
      1324        11  PMPE      H11X           -1.9065470222      -13.4309328523        4.5666530053  MEMB      11              0.0000000000
      1325        11  PMPE      H11Y           -0.7520884093      -14.5163862672        4.2447486565  MEMB      11              0.0000000000
      1326        11  PMPE      C312           -0.0612689995      -12.6816629718        5.3819017595  MEMB      11              0.0000000000
      1327        11  PMPE      H12X            0.9572282877      -13.1250742646        5.4011562448  MEMB      11              0.0000000000
      1328        11  PMPE      H12Y           -0.2382781165      -12.2397276462        6.3857353173  MEMB      11              0.0000000000
      1329        11  PMPE      C313           -0.2058054065      -11.5988794028        4.3230788344  MEMB      11              0.0000000000
      1330        11  PMPE      H13X            0.4741109020      -10.7741971579        4.6262846982  MEMB      11              0.0000000000
      1331        11  PMPE      H13Y           -1.2127048109      -11.1417729529        4.4304462136  MEMB      11              0.0000000000
      1332        11  PMPE      C314            0.0783969936      -12.0868150872        2.8520320478  MEMB      11              0.0000000000
      1333        11  PMPE      H14X           -0.4216037678      -13.0170536465        2.5071023010  MEMB      11              0.0000000000
      1334        11  PMPE      H14Y            1.1712058770      -12.2679790070        2.9372917243  MEMB      11              0.0000000000
      1335        11  PMPE      C315           -0.2717530911      -11.0035907092        1.8176187198  MEMB      11              0.0000000000
      1336        11  PMPE      H15X           -1.3744660813      -11.0195506695        1.6831195233  MEMB      11              0.0000000000
      1337        11  PMPE      H15Y            0.1387491850      -11.2898224938        0.8257125771  MEMB      11              0.0000000000
      1338        11  PMPE      C316            0.1893929588       -9.6172223315        2.1972357349  MEMB      11              0.0000000000
      1339        11  PMPE      H16X            0.0587042044       -8.9463072441        1.3213857545  MEMB      11              0.0000000000
      1340        11  PMPE      H16Y            1.2732492581       -9.5551124167        2.4332843919  MEMB      11              0.0000000000
      1341        11  PMPE      H16Z           -0.2966215549       -9.0880235142        3.0446190398  MEMB      11              0.0000000000
      1342        12  PMPE      N              12.2952666459       -6.1915146707       18.0702546422  MEMB      12              0.0000000000
      1343        12  PMPE      HN1            12.5969403280       -5.8585400218       19.0081889356  MEMB      12              0.0000000000
      1344        12  PMPE      HN2            11.5776568574       -5.5732049571       17.6409189168  MEMB      12              0.0000000000
      1345        12  PMPE      HN3            12.0552251595       -7.2019056398       18.0146639961  MEMB      12              0.0000000000
      1346        12  PMPE      C12            13.5353419592       -6.0323347688       17.1949222950  MEMB      12              0.0000000000
      1347        12  PMPE      H12A           13.6652116441       -4.9389510707       17.0467095272  MEMB      12              0.0000000000
      1348        12  PMPE      H12B           13.3180057702       -6.5055582226       16.2135225216  MEMB      12              0.0000000000
      1349        12  PMPE      C11            14.7575440018       -6.6402642122       17.8974864641  MEMB      12              0.0000000000
      1350        12  PMPE      H11A           15.6375317490       -6.3473383601       17.2858190106  MEMB      12              0.0000000000
      1351        12  PMPE      H11B           14.8077030945       -7.7455372939       17.9983661981  MEMB      12              0.0000000000
      1352        12  PMPE      P              15.1007878887       -4.8664592071       19.8274108513  MEMB      12              0.0000000000
      1353        12  PMPE      O13            16.0525781573       -4.9210587968       20.9265703172  MEMB      12              0.0000000000
      1354        12  PMPE      O14            13.8523539596       -4.1697422890       20.1463720019  MEMB      12              0.0000000000
      1355        12  PMPE      O11            15.8427577499       -4.0759791041       18.6857034061  MEMB      12              0.0000000000
      1356        12  PMPE      O12            14.7901451184       -6.2936560699       19.2512800440  MEMB      12              0.0000000000
      1357        12  PMPE      C1             16.5499902235       -2.8622098795       19.0189647980  MEMB      12              0.0000000000
      1358        12  PMPE      HA             17.4824850367       -3.1928168993       19.5244083055  MEMB      12              0.0000000000
      1359        12  PMPE      HB             15.9486746659       -2.1608136152       19.6360417451  MEMB      12              0.0000000000
      1360        12  PMPE      C2             17.1212647189       -2.0257420799       17.6960004245  MEMB      12              0.0000000000
      1361        12  PMPE      HS             17.6445763180       -1.1424776984       18.1206300236  MEMB      12              0.0000000000
      1362        12  PMPE      O21            16.1203216078       -1.7055527972       16.6621578563  MEMB      12              0.0000000000
      1363        12  PMPE      C21            15.1830792644       -0.9162656604       17.1386755414  MEMB      12              0.0000000000
      1364        12  PMPE      O22            15.1777551558       -0.2887553913       18.1747682768  MEMB      12              0.0000000000
      1365        12  PMPE      C22            13.9122803109       -0.9235492824       16.1729403498  MEMB      12              0.0000000000
      1366        12  PMPE      H2R            14.1611420761       -0.7604369803       15.1025276322  MEMB      12              0.0000000000
      1367        12  PMPE      H2S            13.2477005563       -0.1212682112       16.5589453339  MEMB      12              0.0000000000
      1368        12  PMPE      C3             18.1735393162       -2.7960869545       16.8960665449  MEMB      12              0.0000000000
      1369        12  PMPE      HX             19.0003913927       -3.0656716582       17.5874136345  MEMB      12              0.0000000000
      1370        12  PMPE      HY             18.5515139107       -2.0329402056       16.1825797120  MEMB      12              0.0000000000
      1371        12  PMPE      O31            17.5323555054       -3.9135729047       16.3026564432  MEMB      12              0.0000000000
      1372        12  PMPE      C31            17.8968449098       -4.2129355624       15.0482726725  MEMB      12              0.0000000000
      1373        12  PMPE      O32            18.9022901742       -3.8326138696       14.5568137153  MEMB      12              0.0000000000
      1374        12  PMPE      C32            16.7307460649       -4.9947504726       14.4470907985  MEMB      12              0.0000000000
      1375        12  PMPE      H2X            16.1899001389       -4.4520726965       13.6425365588  MEMB      12              0.0000000000
      1376        12  PMPE      H2Y            16.0723720994       -5.3947578290       15.2476274102  MEMB      12              0.0000000000
      1377        12  PMPE      C23            13.0798149835       -2.2284196617       16.3638381162  MEMB      12              0.0000000000
      1378        12  PMPE      H3R            12.5914763449       -2.2936139731       17.3596273177  MEMB      12              0.0000000000
      1379        12  PMPE      H3S            13.7522564937       -3.1085862096       16.2775243804  MEMB      12              0.0000000000
      1380        12  PMPE      C24            11.9503263912       -2.2761106490       15.2478723742  MEMB      12              0.0000000000
      1381        12  PMPE      H4R            11.4566552693       -1.2809242168       15.2332467528  MEMB      12              0.0000000000
      1382        12  PMPE      H4S            11.2776681298       -3.0978579574       15.5743434001  MEMB      12              0.0000000000
      1383        12  PMPE      C25            12.5922755009       -2.7117266351       13.9311079594  MEMB      12              0.0000000000
      1384        12  PMPE      H5R            13.0833012588       -3.7076779410       13.8951132855  MEMB      12              0.0000000000
      1385        12  PMPE      H5S            13.4377349445       -2.1069420134       13.5389921444  MEMB      12              0.0000000000
      1386        12  PMPE      C26            11.5615829673       -2.6705542257       12.8289902193  MEMB      12              0.0000000000
      1387        12  PMPE      H6R            11.3894909402       -1.6121563340       12.5383028563  MEMB      12              0.0000000000
      1388        12  PMPE      H6S            10.6073587138       -3.0916616304       13.2116723366  MEMB      12              0.0000000000
      1389        12  PMPE      C27            12.2215425426       -3.2109820029       11.5622932100  MEMB      12              0.0000000000
      1390        12  PMPE      H7R            12.1351483611       -4.3160645706       11.4871293974  MEMB      12              0.0000000000
      1391        12  PMPE      H7S            13.3321701038       -3.1841542871       11.5726623485  MEMB      12              0.0000000000
      1392        12  PMPE      C28            11.8235850411       -2.3903498331       10.2808209602  MEMB      12              0.0000000000
      1393        12  PMPE      H8R            12.5936606416       -2.8441794677        9.6210155543  MEMB      12              0.0000000000
      1394        12  PMPE      H8S            12.0939132105       -1.3490422447       10.5581693661  MEMB      12              0.0000000000
      1395        12  PMPE      C29            10.3704959653       -2.5338556116        9.8294759661  MEMB      12              0.0000000000
      1396        12  PMPE      H9R             9.5350442738       -1.9926479605       10.3228686069  MEMB      12              0.0000000000
      1397        12  PMPE      C217           10.1009119839       -3.9931804486        9.4603904329  MEMB      12              0.0000000000
      1398        12  PMPE      H17R            9.1146373393       -4.3815256915        9.6825152907  MEMB      12              0.0000000000
      1399        12  PMPE      H17S           11.0012847136       -4.5946354853        9.4387133673  MEMB      12              0.0000000000
      1400        12  PMPE      C210           10.0385887627       -2.8410917576        8.4031052149  MEMB      12              0.0000000000
      1401        12  PMPE      H10R            9.0761650254       -2.4134684496        8.0492692094  MEMB      12              0.0000000000
      1402        12  PMPE      C211           11.2049010103       -3.0793693799        7.3500078402  MEMB      12              0.0000000000
      1403        12  PMPE      H11R           12.0186259867       -3.7665883119        7.6660817845  MEMB      12              0.0000000000
      1404        12  PMPE      H11S           11.6448736736       -2.0807483001        7.1414390657  MEMB      12              0.0000000000
      1405        12  PMPE      C212           10.5198453943       -3.6269409600        6.0639413579  MEMB      12              0.0000000000
      1406        12  PMPE      H12R            9.7007210073       -4.3497438288        6.2662094830  MEMB      12              0.0000000000
      1407        12  PMPE      H12S           11.3190895097       -4.1453864586        5.4923260505  MEMB      12              0.0000000000
      1408        12  PMPE      C213           10.1712318908       -2.4980924317        5.0784635086  MEMB      12              0.0000000000
      1409        12  PMPE      H13R            9.5244072993       -1.7906460007        5.6401210588  MEMB      12              0.0000000000
      1410        12  PMPE      H13S            9.4770462630       -2.9873387969        4.3621786957  MEMB      12              0.0000000000
      1411        12  PMPE      C214           11.2867135251       -1.7953685389        4.3346200259  MEMB      12              0.0000000000
      1412        12  PMPE      H14R           11.8004271997       -1.1591317358        5.0866983413  MEMB      12              0.0000000000
      1413        12  PMPE      H14S           10.9468047848       -1.0188474186        3.6164293211  MEMB      12              0.0000000000
      1414        12  PMPE      C215           12.2648156427       -2.7576257073        3.5621379128  MEMB      12              0.0000000000
      1415        12  PMPE      H15R           11.6411345225       -3.3768252186        2.8824810924  MEMB      12              0.0000000000
      1416        12  PMPE      H15S           12.8510818316       -3.4430628548        4.2108203931  MEMB      12              0.0000000000
      1417        12  PMPE      C216           13.1677049538       -1.9291560537        2.5718516851  MEMB      12              0.0000000000
      1418        12  PMPE      H16R           12.4685019230       -1.4379604930        1.8618081919  MEMB      12              0.0000000000
      1419        12  PMPE      H16S           13.8189545971       -1.1690414559        3.0539520813  MEMB      12              0.0000000000
      1420        12  PMPE      H16T           13.8118236731       -2.4802033786        1.8536749010  MEMB      12              0.0000000000
      1421        12  PMPE      C33            17.3073683454       -6.2806105761       13.6945902716  MEMB      12              0.0000000000
      1422        12  PMPE      H3X            17.6609112002       -6.8284223588       14.5941626333  MEMB      12              0.0000000000
      1423        12  PMPE      H3Y            18.1227469541       -6.0472335226       12.9769457906  MEMB      12              0.0000000000
      1424        12  PMPE      C34            16.2336342508       -7.1897441748       13.0446231091  MEMB      12              0.0000000000
      1425        12  PMPE      H4X            15.5145182927       -7.5536717074       13.8093127942  MEMB      12              0.0000000000
      1426        12  PMPE      H4Y            16.7283663996       -8.1083311427       12.6628394503  MEMB      12              0.0000000000
      1427        12  PMPE      C35            15.4238292250       -6.5015146195       11.8981429910  MEMB      12              0.0000000000
      1428        12  PMPE      H5X            16.2333817089       -6.4658536330       11.1380942549  MEMB      12              0.0000000000
      1429        12  PMPE      H5Y            14.9996609343       -5.4991370993       12.1209473029  MEMB      12              0.0000000000
      1430        12  PMPE      C36            14.2777291287       -7.4230130001       11.3997888702  MEMB      12              0.0000000000
      1431        12  PMPE      H6X            13.8087807514       -7.6902869294       12.3708567568  MEMB      12              0.0000000000
      1432        12  PMPE      H6Y            14.8178431837       -8.3217971002       11.0326583728  MEMB      12              0.0000000000
      1433        12  PMPE      C37            13.1562967519       -6.8507048321       10.4773791505  MEMB      12              0.0000000000
      1434        12  PMPE      H7X            12.4511374998       -6.2165788089       11.0561327992  MEMB      12              0.0000000000
      1435        12  PMPE      H7Y            12.4937987380       -7.6330406665       10.0491646756  MEMB      12              0.0000000000
      1436        12  PMPE      C38            13.6791678183       -5.9291071174        9.4423182632  MEMB      12              0.0000000000
      1437        12  PMPE      H8X            14.3422115119       -5.2282691472        9.9932449568  MEMB      12              0.0000000000
      1438        12  PMPE      H8Y            12.7924835243       -5.4882345039        8.9385888053  MEMB      12              0.0000000000
      1439        12  PMPE      C39            14.5810712867       -6.6556724507        8.3891940181  MEMB      12              0.0000000000
      1440        12  PMPE      H9X            13.9614587975       -7.2149024929        7.6559390069  MEMB      12              0.0000000000
      1441        12  PMPE      H9Y            15.2216710540       -7.4534017118        8.8222996695  MEMB      12              0.0000000000
      1442        12  PMPE      C310           15.3844773814       -5.7136384784        7.5208305333  MEMB      12              0.0000000000
      1443        12  PMPE      H10X           15.9709609441       -5.0782490398        8.2184261973  MEMB      12              0.0000000000
      1444        12  PMPE      H10Y           14.6599101072       -5.1203890677        6.9230195042  MEMB      12              0.0000000000
      1445        12  PMPE      C311           16.3272920071       -6.5744272537        6.7043733742  MEMB      12              0.0000000000
      1446        12  PMPE      H11X           15.9346516503       -7.5050411068        6.2416505146  MEMB      12              0.0000000000
      1447        12  PMPE      H11Y           16.9548583329       -6.8909230907        7.5647872977  MEMB      12              0.0000000000
      1448        12  PMPE      C312           17.0989112844       -5.8220085673        5.6593193760  MEMB      12              0.0000000000
      1449        12  PMPE      H12X           17.9993185619       -6.4170373191        5.3956375909  MEMB      12              0.0000000000
      1450        12  PMPE      H12Y           17.4665541247       -4.8609604281        6.0783025827  MEMB      12              0.0000000000
      1451        12  PMPE      C313           16.4332350248       -5.6084653267        4.2517685732  MEMB      12              0.0000000000
      1452        12  PMPE      H13X           17.1666587654       -5.1804181501        3.5353981824  MEMB      12              0.0000000000
      1453        12  PMPE      H13Y           15.6834868300       -4.8034976415        4.4074145652  MEMB      12              0.0000000000
      1454        12  PMPE      C314           15.8039730095       -6.8901565239        3.7691223449  MEMB      12              0.0000000000
      1455        12  PMPE      H14X           15.0672968221       -7.2215632337        4.5318789427  MEMB      12              0.0000000000
      1456        12  PMPE      H14Y           16.4297287119       -7.8081263000        3.7600378103  MEMB      12              0.0000000000
      1457        12  PMPE      C315           15.0665391058       -6.7753866177        2.4493642369  MEMB      12              0.0000000000
      1458        12  PMPE      H15X           14.3945592961       -5.8917543263        2.4051125788  MEMB      12              0.0000000000
      1459        12  PMPE      H15Y           14.5568644174       -7.7350163151        2.2177096867  MEMB      12              0.0000000000
      1460        12  PMPE      C316           16.0290381831       -6.5244878146        1.2512740345  MEMB      12              0.0000000000
      1461        12  PMPE      H16X           15.5707528095       -6.5968998206        0.2417928955  MEMB      12              0.0000000000
      1462        12  PMPE      H16Y           16.7626710963       -7.3570899272        1.3049234641  MEMB      12              0.0000000000
      1463        12  PMPE      H16Z           16.6144796835       -5.5934609404        1.4086548656  MEMB      12              0.0000000000
      1464        13  POPE      N             -17.8805699980       -0.2585240772       20.6435806599  MEMB      13              0.0000000000
      1465        13  POPE      HN1           -17.8350944973       -0.2927494431       21.6820220983  MEMB      13              0.0000000000
      1466        13  POPE      HN2           -18.5143365540       -1.0441384083       20.3930808141  MEMB      13              0.0000000000
      1467        13  POPE      HN3           -16.9344884612       -0.3312142690       20.2178509715  MEMB      13              0.0000000000
      1468        13  POPE      C12           -18.3154668649        1.0892150774       20.3456979585  MEMB      13              0.0000000000
      1469        13  POPE      H12A          -18.3218654530        1.6474822133       21.3062279963  MEMB      13              0.0000000000
      1470        13  POPE      H12B          -19.3685652728        0.9034552374       20.0443711498  MEMB      13              0.0000000000
      1471        13  POPE      C11           -17.5636123774        1.7978692856       19.2119351623  MEMB      13              0.0000000000
      1472        13  POPE      H11A          -18.1219532285        2.7209534297       18.9464315411  MEMB      13              0.0000000000
      1473        13  POPE      H11B          -17.5072198341        1.0909158642       18.3567405295  MEMB      13              0.0000000000
      1474        13  POPE      P             -15.1878102375        2.7348354529       18.3868678444  MEMB      13              0.0000000000
      1475        13  POPE      O13           -13.7766328486        2.3625586395       18.6954641608  MEMB      13              0.0000000000
      1476        13  POPE      O14           -15.3505997614        4.1782940397       18.0671725105  MEMB      13              0.0000000000
      1477        13  POPE      O11           -15.7280372535        1.8915528418       17.1719249579  MEMB      13              0.0000000000
      1478        13  POPE      O12           -16.1498938939        2.1282428217       19.4773567431  MEMB      13              0.0000000000
      1479        13  POPE      C1            -16.0044528098        2.5070639847       15.9401598318  MEMB      13              0.0000000000
      1480        13  POPE      HA            -15.0685410015        2.8451570804       15.4461119346  MEMB      13              0.0000000000
      1481        13  POPE      HB            -16.8067541299        3.2722479166       16.0117636341  MEMB      13              0.0000000000
      1482        13  POPE      C2            -16.3504210041        1.3656198962       14.9242306512  MEMB      13              0.0000000000
      1483        13  POPE      HS            -16.7095000651        1.8170061677       13.9746864044  MEMB      13              0.0000000000
      1484        13  POPE      O21           -17.4750280253        0.6220932039       15.4439045340  MEMB      13              0.0000000000
      1485        13  POPE      C21           -18.6509900688        1.2428184588       15.5712725852  MEMB      13              0.0000000000
      1486        13  POPE      O22           -18.8815522230        2.3943065967       15.4285973085  MEMB      13              0.0000000000
      1487        13  POPE      C22           -19.6962427061        0.1472560938       16.0856222399  MEMB      13              0.0000000000
      1488        13  POPE      H2R           -20.6145445070        0.6941601839       16.3888367703  MEMB      13              0.0000000000
      1489        13  POPE      H2S           -19.2992723977       -0.3610840421       16.9902360473  MEMB      13              0.0000000000
      1490        13  POPE      C3            -15.3458554556        0.3492830665       14.6322590922  MEMB      13              0.0000000000
      1491        13  POPE      HX            -14.9912286507       -0.1464073706       15.5611573607  MEMB      13              0.0000000000
      1492        13  POPE      HY            -14.4170621146        0.7656818215       14.1869773075  MEMB      13              0.0000000000
      1493        13  POPE      O31           -15.8838352290       -0.6622036000       13.7688170338  MEMB      13              0.0000000000
      1494        13  POPE      C31           -15.1826047011       -1.1615324782       12.6724835146  MEMB      13              0.0000000000
      1495        13  POPE      O32           -14.1429289189       -0.6762009712       12.2433316969  MEMB      13              0.0000000000
      1496        13  POPE      C32           -16.0301537108       -2.3999502647       12.3148628089  MEMB      13              0.0000000000
      1497        13  POPE      H2X           -17.0753650763       -2.3799992503       12.6909695868  MEMB      13              0.0000000000
      1498        13  POPE      H2Y           -15.5289589425       -3.2976098107       12.7359710453  MEMB      13              0.0000000000
      1499        13  POPE      C23           -19.9243085767       -0.8935961079       14.9562306056  MEMB      13              0.0000000000
      1500        13  POPE      H3R           -20.6169858539       -1.6629963088       15.3593958702  MEMB      13              0.0000000000
      1501        13  POPE      H3S           -19.0344955022       -1.4545073791       14.5985552757  MEMB      13              0.0000000000
      1502        13  POPE      C24           -20.7066567767       -0.3189743449       13.7341881802  MEMB      13              0.0000000000
      1503        13  POPE      H4R           -21.4327910815        0.3498026954       14.2438813912  MEMB      13              0.0000000000
      1504        13  POPE      H4S           -21.2324256462       -1.2127453033       13.3353627944  MEMB      13              0.0000000000
      1505        13  POPE      C25           -19.8960990562        0.3473377333       12.5030203234  MEMB      13              0.0000000000
      1506        13  POPE      H5R           -18.9691286618       -0.2637895110       12.5426462651  MEMB      13              0.0000000000
      1507        13  POPE      H5S           -19.6711458530        1.3617984577       12.8961948691  MEMB      13              0.0000000000
      1508        13  POPE      C26           -20.6865701035        0.3308090840       11.2603653782  MEMB      13              0.0000000000
      1509        13  POPE      H6R           -21.4998488950        1.0868317939       11.2968100124  MEMB      13              0.0000000000
      1510        13  POPE      H6S           -21.0486494651       -0.6682581164       10.9361984554  MEMB      13              0.0000000000
      1511        13  POPE      C27           -20.0160909780        0.9677021431       10.0250379791  MEMB      13              0.0000000000
      1512        13  POPE      H7R           -19.1574342000        0.3017350627        9.7936999444  MEMB      13              0.0000000000
      1513        13  POPE      H7S           -19.6188522538        1.9819503085       10.2437246002  MEMB      13              0.0000000000
      1514        13  POPE      C28           -20.8251428316        1.1331577757        8.6814124521  MEMB      13              0.0000000000
      1515        13  POPE      H8R           -21.7434160756        1.7466691720        8.8026510078  MEMB      13              0.0000000000
      1516        13  POPE      H8S           -21.1031958512        0.1259708111        8.3038121558  MEMB      13              0.0000000000
      1517        13  POPE      C29           -20.0765116528        1.7912941333        7.4844173403  MEMB      13              0.0000000000
      1518        13  POPE      H91           -20.6334729868        2.6681578954        7.1226105434  MEMB      13              0.0000000000
      1519        13  POPE      C210          -18.8607784090        1.5438980033        6.8627409627  MEMB      13              0.0000000000
      1520        13  POPE      H101          -18.5786803100        2.1796110335        6.0105153246  MEMB      13              0.0000000000
      1521        13  POPE      C211          -17.9019307210        0.3900848665        7.1813378588  MEMB      13              0.0000000000
      1522        13  POPE      H11R          -17.9225169238       -0.3925799144        6.3930913339  MEMB      13              0.0000000000
      1523        13  POPE      H11S          -18.1952487290       -0.1977587153        8.0772874303  MEMB      13              0.0000000000
      1524        13  POPE      C212          -16.4180967381        0.7528619881        7.3151409853  MEMB      13              0.0000000000
      1525        13  POPE      H12R          -15.8577115575       -0.2063859252        7.3266691792  MEMB      13              0.0000000000
      1526        13  POPE      H12S          -16.2966680890        1.3937054896        8.2145279654  MEMB      13              0.0000000000
      1527        13  POPE      C213          -15.8150926939        1.5880253779        6.1834274931  MEMB      13              0.0000000000
      1528        13  POPE      H13R          -14.7134054544        1.7297523721        6.2062294398  MEMB      13              0.0000000000
      1529        13  POPE      H13S          -16.4206840628        2.5189802844        6.1533783633  MEMB      13              0.0000000000
      1530        13  POPE      C214          -16.1254352749        0.9140190561        4.8104684990  MEMB      13              0.0000000000
      1531        13  POPE      H14R          -15.8372125116        1.6792644870        4.0583729860  MEMB      13              0.0000000000
      1532        13  POPE      H14S          -17.1934639658        0.6150823826        4.7451007025  MEMB      13              0.0000000000
      1533        13  POPE      C215          -15.1908110755       -0.2589981435        4.4686415825  MEMB      13              0.0000000000
      1534        13  POPE      H15R          -15.4100522285       -1.1009487125        5.1595639979  MEMB      13              0.0000000000
      1535        13  POPE      H15S          -14.1183660520       -0.0100095036        4.6175954764  MEMB      13              0.0000000000
      1536        13  POPE      C216          -15.2611304063       -0.8289308306        3.0231996960  MEMB      13              0.0000000000
      1537        13  POPE      H16R          -14.7743819597       -0.0340750279        2.4185500031  MEMB      13              0.0000000000
      1538        13  POPE      H16S          -16.2913352980       -0.9471811697        2.6244341270  MEMB      13              0.0000000000
      1539        13  POPE      C217          -14.3360899640       -2.0711060492        2.8853600367  MEMB      13              0.0000000000
      1540        13  POPE      H17R          -13.5318577369       -2.0339601607        3.6509657961  MEMB      13              0.0000000000
      1541        13  POPE      H17S          -13.8388822085       -2.1509711348        1.8950428730  MEMB      13              0.0000000000
      1542        13  POPE      C218          -15.1949329318       -3.3246480090        2.9251247123  MEMB      13              0.0000000000
      1543        13  POPE      H18R          -14.6199991162       -4.2752102563        2.9108787691  MEMB      13              0.0000000000
      1544        13  POPE      H18S          -15.8854107655       -3.2142819527        2.0617709998  MEMB      13              0.0000000000
      1545        13  POPE      H18T          -15.8020949497       -3.3081906129        3.8553968971  MEMB      13              0.0000000000
      1546        13  POPE      C33           -16.0840712239       -2.6983897024       10.8434332930  MEMB      13              0.0000000000
      1547        13  POPE      H3X           -15.1523753944       -2.8664765643       10.2620468045  MEMB      13              0.0000000000
      1548        13  POPE      H3Y           -16.5000451008       -1.7346144753       10.4795321536  MEMB      13              0.0000000000
      1549        13  POPE      C34           -17.0658017140       -3.8445563347       10.5211178620  MEMB      13              0.0000000000
      1550        13  POPE      H4X           -17.9382975279       -3.9185584767       11.2049276369  MEMB      13              0.0000000000
      1551        13  POPE      H4Y           -16.5098765888       -4.8015399062       10.6183314456  MEMB      13              0.0000000000
      1552        13  POPE      C35           -17.6406086993       -3.8834638837        9.0964907065  MEMB      13              0.0000000000
      1553        13  POPE      H5X           -17.9859022590       -4.9326154837        8.9765965706  MEMB      13              0.0000000000
      1554        13  POPE      H5Y           -16.7719014529       -3.7478901413        8.4173080506  MEMB      13              0.0000000000
      1555        13  POPE      C36           -18.9507557031       -3.0362350858        8.8453818253  MEMB      13              0.0000000000
      1556        13  POPE      H6X           -18.7071990215       -1.9522606600        8.8457239737  MEMB      13              0.0000000000
      1557        13  POPE      H6Y           -19.7570125424       -3.3346761057        9.5490886516  MEMB      13              0.0000000000
      1558        13  POPE      C37           -19.5395468908       -3.1391448960        7.4218387759  MEMB      13              0.0000000000
      1559        13  POPE      H7X           -20.1551320378       -2.2268211545        7.2700456959  MEMB      13              0.0000000000
      1560        13  POPE      H7Y           -20.2059952185       -4.0222419615        7.3203168077  MEMB      13              0.0000000000
      1561        13  POPE      C38           -18.5185601141       -3.2937184993        6.2074510936  MEMB      13              0.0000000000
      1562        13  POPE      H8X           -18.0575787673       -4.2892807135        6.3825877122  MEMB      13              0.0000000000
      1563        13  POPE      H8Y           -17.7421039293       -2.5061804317        6.3133761556  MEMB      13              0.0000000000
      1564        13  POPE      C39           -19.0552317049       -3.3749543464        4.7632201724  MEMB      13              0.0000000000
      1565        13  POPE      H9X           -19.6722859427       -4.2769296131        4.5632065168  MEMB      13              0.0000000000
      1566        13  POPE      H9Y           -18.1945079635       -3.1985175085        4.0832603918  MEMB      13              0.0000000000
      1567        13  POPE      C310          -20.0477021535       -2.2821981690        4.4511756983  MEMB      13              0.0000000000
      1568        13  POPE      H10X          -19.5561944212       -1.2890113919        4.5306818196  MEMB      13              0.0000000000
      1569        13  POPE      H10Y          -20.9834285414       -2.3270951210        5.0484375039  MEMB      13              0.0000000000
      1570        13  POPE      C311          -20.3996779634       -2.4180975082        3.0267004769  MEMB      13              0.0000000000
      1571        13  POPE      H11X          -19.6925078163       -3.0804686450        2.4831043544  MEMB      13              0.0000000000
      1572        13  POPE      H11Y          -20.3446341423       -1.3677648621        2.6688003741  MEMB      13              0.0000000000
      1573        13  POPE      C312          -21.8285025074       -3.0657975799        2.8716440374  MEMB      13              0.0000000000
      1574        13  POPE      H12X          -22.5055009072       -2.3758151060        3.4192924164  MEMB      13              0.0000000000
      1575        13  POPE      H12Y          -21.8887126882       -3.9549568467        3.5350387522  MEMB      13              0.0000000000
      1576        13  POPE      C313          -22.2868003185       -3.3696119387        1.4493082805  MEMB      13              0.0000000000
      1577        13  POPE      H13X          -23.2586901912       -3.9078570675        1.4427943766  MEMB      13              0.0000000000
      1578        13  POPE      H13Y          -21.6691123055       -4.1645860730        0.9794161873  MEMB      13              0.0000000000
      1579        13  POPE      C314          -22.4630837123       -2.0986606708        0.5542447453  MEMB      13              0.0000000000
      1580        13  POPE      H14X          -22.8487047185       -2.4254528192       -0.4351099502  MEMB      13              0.0000000000
      1581        13  POPE      H14Y          -21.4385819085       -1.6916797139        0.4160984876  MEMB      13              0.0000000000
      1582        13  POPE      C315          -23.2905806054       -0.8325166592        1.1072608630  MEMB      13              0.0000000000
      1583        13  POPE      H15X          -22.7351130418       -0.4988011091        2.0097095400  MEMB      13              0.0000000000
      1584        13  POPE      H15Y          -24.2272274830       -1.3064582370        1.4711189610  MEMB      13              0.0000000000
      1585        13  POPE      C316          -23.6185935990        0.3246975936        0.1095031027  MEMB      13              0.0000000000
      1586        13  POPE      H16X          -23.6833978394       -0.0289393424       -0.9417165205  MEMB      13              0.0000000000
      1587        13  POPE      H16Y          -22.7748005330        1.0466011710        0.1439950109  MEMB      13              0.0000000000
      1588        13  POPE      H16Z          -24.5016130558        0.8614530485        0.5175369103  MEMB      13              0.0000000000
      1589        14  PMPE      N               3.3710622227       13.7708447061       18.6649539244  MEMB      14              0.0000000000
      1590        14  PMPE      HN1             2.9443338929       14.0567023964       17.7606374386  MEMB      14              0.0000000000
      1591        14  PMPE      HN2             4.3971344325       13.6706964451       18.5280375372  MEMB      14              0.0000000000
      1592        14  PMPE      HN3             2.8210758943       12.9200197956       18.8999263442  MEMB      14              0.0000000000
      1593        14  PMPE      C12             3.2910807868       14.9141110275       19.6203361971  MEMB      14              0.0000000000
      1594        14  PMPE      H12A            3.9093441027       14.6926258784       20.5164477563  MEMB      14              0.0000000000
      1595        14  PMPE      H12B            2.2970005086       14.9349319719       20.1160092893  MEMB      14              0.0000000000
      1596        14  PMPE      C11             3.5791416717       16.2459721501       18.9090107959  MEMB      14              0.0000000000
      1597        14  PMPE      H11A            3.5202906739       17.1343413095       19.5735842406  MEMB      14              0.0000000000
      1598        14  PMPE      H11B            2.7853220932       16.4117734936       18.1496154375  MEMB      14              0.0000000000
      1599        14  PMPE      P               6.1589693881       16.3887545552       19.0190236397  MEMB      14              0.0000000000
      1600        14  PMPE      O13             6.6406360170       15.1386671169       19.6806190380  MEMB      14              0.0000000000
      1601        14  PMPE      O14             5.9681832311       17.5801725668       19.9307509708  MEMB      14              0.0000000000
      1602        14  PMPE      O11             7.2790947924       16.7210920626       17.9402298755  MEMB      14              0.0000000000
      1603        14  PMPE      O12             4.8219544512       16.0827890149       18.2350755616  MEMB      14              0.0000000000
      1604        14  PMPE      C1              7.4182330454       16.1470907057       16.6885356995  MEMB      14              0.0000000000
      1605        14  PMPE      HA              6.9037862718       15.1756764632       16.5272290574  MEMB      14              0.0000000000
      1606        14  PMPE      HB              8.4966753802       16.0849331601       16.4288825705  MEMB      14              0.0000000000
      1607        14  PMPE      C2              6.8184984929       17.1419935177       15.6579214404  MEMB      14              0.0000000000
      1608        14  PMPE      HS              7.4151039401       18.0775022591       15.7145448832  MEMB      14              0.0000000000
      1609        14  PMPE      O21             5.4557287298       17.5313066736       15.9522647296  MEMB      14              0.0000000000
      1610        14  PMPE      C21             4.9233453619       18.5966402364       15.3863818864  MEMB      14              0.0000000000
      1611        14  PMPE      O22             5.3854957388       19.2279043896       14.4629633496  MEMB      14              0.0000000000
      1612        14  PMPE      C22             3.5366011965       18.9807081118       16.0231789311  MEMB      14              0.0000000000
      1613        14  PMPE      H2R             3.6948560034       19.9338069614       16.5717027771  MEMB      14              0.0000000000
      1614        14  PMPE      H2S             3.2553870656       18.2547188387       16.8157564141  MEMB      14              0.0000000000
      1615        14  PMPE      C3              6.8365763070       16.6274830511       14.1239670286  MEMB      14              0.0000000000
      1616        14  PMPE      HX              7.8828305652       16.3651624457       13.8577695399  MEMB      14              0.0000000000
      1617        14  PMPE      HY              6.5923990347       17.4971543249       13.4771518319  MEMB      14              0.0000000000
      1618        14  PMPE      O31             5.8922434055       15.5908919314       13.9227314509  MEMB      14              0.0000000000
      1619        14  PMPE      C31             6.3023176322       14.4230988143       13.3110186001  MEMB      14              0.0000000000
      1620        14  PMPE      O32             7.4419575087       14.2048188993       12.9365980349  MEMB      14              0.0000000000
      1621        14  PMPE      C32             5.0645052828       13.4565133005       13.2043723161  MEMB      14              0.0000000000
      1622        14  PMPE      H2X             4.6975394625       13.1377738256       14.2034029983  MEMB      14              0.0000000000
      1623        14  PMPE      H2Y             5.4470969068       12.5829824441       12.6343826766  MEMB      14              0.0000000000
      1624        14  PMPE      C23             2.5234120507       18.9815382431       14.9366503752  MEMB      14              0.0000000000
      1625        14  PMPE      H3R             2.8727526400       19.7844567337       14.2528344450  MEMB      14              0.0000000000
      1626        14  PMPE      H3S             1.5363266491       19.2323292746       15.3805959746  MEMB      14              0.0000000000
      1627        14  PMPE      C24             2.4178647687       17.6461746884       14.1199455823  MEMB      14              0.0000000000
      1628        14  PMPE      H4R             1.8533229221       16.9216324725       14.7449671204  MEMB      14              0.0000000000
      1629        14  PMPE      H4S             3.4690491635       17.3273221823       13.9536162064  MEMB      14              0.0000000000
      1630        14  PMPE      C25             1.6238379399       17.6855987040       12.8711478319  MEMB      14              0.0000000000
      1631        14  PMPE      H5R             0.6713023300       18.2340566777       13.0329838107  MEMB      14              0.0000000000
      1632        14  PMPE      H5S             1.2860869728       16.6764358974       12.5520307008  MEMB      14              0.0000000000
      1633        14  PMPE      C26             2.4422453843       18.2357256134       11.6693170123  MEMB      14              0.0000000000
      1634        14  PMPE      H6R             3.1226401135       17.4409391435       11.2955545508  MEMB      14              0.0000000000
      1635        14  PMPE      H6S             3.0392133500       19.1224800284       11.9720000777  MEMB      14              0.0000000000
      1636        14  PMPE      C27             1.4496973226       18.5962816548       10.5295977393  MEMB      14              0.0000000000
      1637        14  PMPE      H7R             1.1392095913       19.6430872255       10.7348202741  MEMB      14              0.0000000000
      1638        14  PMPE      H7S             0.5592952305       17.9344051966       10.5881216642  MEMB      14              0.0000000000
      1639        14  PMPE      C28             1.9370411199       18.4723524909        9.0386536496  MEMB      14              0.0000000000
      1640        14  PMPE      H8R             1.2425147626       19.0709350021        8.4112361194  MEMB      14              0.0000000000
      1641        14  PMPE      H8S             1.9005836571       17.4416231965        8.6256294160  MEMB      14              0.0000000000
      1642        14  PMPE      C29             3.3443019970       19.1110739661        8.7937571399  MEMB      14              0.0000000000
      1643        14  PMPE      H9R             4.1038622732       18.7945183974        9.5402032094  MEMB      14              0.0000000000
      1644        14  PMPE      C217            3.5300851357       20.4747325123        8.2565495885  MEMB      14              0.0000000000
      1645        14  PMPE      H17R            4.4375692322       20.8854729066        8.6815845201  MEMB      14              0.0000000000
      1646        14  PMPE      H17S            2.5957365557       20.8625046263        7.8698790590  MEMB      14              0.0000000000
      1647        14  PMPE      C210            3.9346434788       19.3095609643        7.3972056498  MEMB      14              0.0000000000
      1648        14  PMPE      H10R            5.0057131617       19.0355172437        7.2875198913  MEMB      14              0.0000000000
      1649        14  PMPE      C211            3.1047176297       19.1022485279        6.1638231644  MEMB      14              0.0000000000
      1650        14  PMPE      H11R            3.2047501278       20.0467854261        5.5874857686  MEMB      14              0.0000000000
      1651        14  PMPE      H11S            2.0393309159       18.8360676870        6.3324052711  MEMB      14              0.0000000000
      1652        14  PMPE      C212            3.7060043190       18.0903478818        5.1181622997  MEMB      14              0.0000000000
      1653        14  PMPE      H12R            3.6739836428       17.0959305656        5.6125603492  MEMB      14              0.0000000000
      1654        14  PMPE      H12S            4.7663171555       18.3345864357        4.8936513660  MEMB      14              0.0000000000
      1655        14  PMPE      C213            2.8665991960       17.7950465090        3.8491240050  MEMB      14              0.0000000000
      1656        14  PMPE      H13R            1.8234172106       17.6387603182        4.1979323728  MEMB      14              0.0000000000
      1657        14  PMPE      H13S            3.3746223411       16.8602879790        3.5290304997  MEMB      14              0.0000000000
      1658        14  PMPE      C214            2.8871639543       18.7818656940        2.7074396644  MEMB      14              0.0000000000
      1659        14  PMPE      H14R            3.8968722595       19.1847659983        2.4783489681  MEMB      14              0.0000000000
      1660        14  PMPE      H14S            2.2235363110       19.6265009150        2.9911825132  MEMB      14              0.0000000000
      1661        14  PMPE      C215            2.4165449283       18.1453589805        1.4170281100  MEMB      14              0.0000000000
      1662        14  PMPE      H15R            1.4017037672       17.8336918801        1.7445667247  MEMB      14              0.0000000000
      1663        14  PMPE      H15S            2.9511681108       17.1989136743        1.1873751329  MEMB      14              0.0000000000
      1664        14  PMPE      C216            2.4247748910       18.9984798144        0.1931625240  MEMB      14              0.0000000000
      1665        14  PMPE      H16R            1.9614417079       18.4959104285       -0.6826620876  MEMB      14              0.0000000000
      1666        14  PMPE      H16S            1.8146815169       19.9147439674        0.3433841480  MEMB      14              0.0000000000
      1667        14  PMPE      H16T            3.4167706099       19.3866891157       -0.1223688790  MEMB      14              0.0000000000
      1668        14  PMPE      C33             3.8891668305       14.1775118113       12.4699198280  MEMB      14              0.0000000000
      1669        14  PMPE      H3X             3.4579412634       14.8838196885       13.2111987065  MEMB      14              0.0000000000
      1670        14  PMPE      H3Y             3.2167220939       13.3003437171       12.3571569404  MEMB      14              0.0000000000
      1671        14  PMPE      C34             4.1957669026       14.7844267410       11.1176977954  MEMB      14              0.0000000000
      1672        14  PMPE      H4X             4.5006860543       15.8487397935       11.2103442040  MEMB      14              0.0000000000
      1673        14  PMPE      H4Y             3.1362511882       14.7340532087       10.7872287511  MEMB      14              0.0000000000
      1674        14  PMPE      C35             5.0990678831       14.0195668586       10.1699056585  MEMB      14              0.0000000000
      1675        14  PMPE      H5X             4.9275541689       12.9328867118       10.3249220007  MEMB      14              0.0000000000
      1676        14  PMPE      H5Y             6.1224938237       14.2965455613       10.5018744280  MEMB      14              0.0000000000
      1677        14  PMPE      C36             4.9638741931       14.3251872502        8.6523121707  MEMB      14              0.0000000000
      1678        14  PMPE      H6X             5.0613795507       15.4292602806        8.7287081016  MEMB      14              0.0000000000
      1679        14  PMPE      H6Y             3.9818417097       13.9596506232        8.2831015065  MEMB      14              0.0000000000
      1680        14  PMPE      C37             6.0548027310       13.8309969697        7.6829334906  MEMB      14              0.0000000000
      1681        14  PMPE      H7X             6.1654206886       12.7286478294        7.7660668433  MEMB      14              0.0000000000
      1682        14  PMPE      H7Y             6.9539145769       14.4053928300        7.9927537757  MEMB      14              0.0000000000
      1683        14  PMPE      C38             5.7028780401       14.2190959206        6.2439066438  MEMB      14              0.0000000000
      1684        14  PMPE      H8X             6.0330035482       15.2574200132        6.0266027253  MEMB      14              0.0000000000
      1685        14  PMPE      H8Y             4.6309801822       13.9437633866        6.1461918882  MEMB      14              0.0000000000
      1686        14  PMPE      C39             6.4466426694       13.3627666629        5.1704886122  MEMB      14              0.0000000000
      1687        14  PMPE      H9X             6.1661221043       12.3267171924        5.4572483476  MEMB      14              0.0000000000
      1688        14  PMPE      H9Y             7.5130378694       13.5372197469        5.4287296313  MEMB      14              0.0000000000
      1689        14  PMPE      C310            6.2159947029       13.6780319296        3.7069615276  MEMB      14              0.0000000000
      1690        14  PMPE      H10X            6.8288792287       13.0309282914        3.0436737883  MEMB      14              0.0000000000
      1691        14  PMPE      H10Y            6.4881276807       14.7325544408        3.4873102863  MEMB      14              0.0000000000
      1692        14  PMPE      C311            4.7504697100       13.5521631600        3.2841052875  MEMB      14              0.0000000000
      1693        14  PMPE      H11X            4.2619865761       14.4821383987        3.6458391434  MEMB      14              0.0000000000
      1694        14  PMPE      H11Y            4.2994201520       12.6911497301        3.8221859159  MEMB      14              0.0000000000
      1695        14  PMPE      C312            4.6754225237       13.4100335661        1.7695603546  MEMB      14              0.0000000000
      1696        14  PMPE      H12X            5.2809357867       12.6067262335        1.2979966936  MEMB      14              0.0000000000
      1697        14  PMPE      H12Y            5.1357989664       14.2645087803        1.2289629493  MEMB      14              0.0000000000
      1698        14  PMPE      C313            3.2391983979       13.2929973756        1.3368238517  MEMB      14              0.0000000000
      1699        14  PMPE      H13X            2.6021564754       14.0354965952        1.8633156558  MEMB      14              0.0000000000
      1700        14  PMPE      H13Y            2.9103721827       12.2721853396        1.6268870121  MEMB      14              0.0000000000
      1701        14  PMPE      C314            3.0190022733       13.3597634882       -0.2283201218  MEMB      14              0.0000000000
      1702        14  PMPE      H14X            1.9271073986       13.3714355653       -0.4331382151  MEMB      14              0.0000000000
      1703        14  PMPE      H14Y            3.3970217108       12.4000328483       -0.6410423556  MEMB      14              0.0000000000
      1704        14  PMPE      C315            3.7022323786       14.5815527753       -0.8744934574  MEMB      14              0.0000000000
      1705        14  PMPE      H15X            4.8084925776       14.4836732578       -0.8440131588  MEMB      14              0.0000000000
      1706        14  PMPE      H15Y            3.3447970025       15.4562934807       -0.2902073919  MEMB      14              0.0000000000
      1707        14  PMPE      C316            3.3345600921       14.8367038808       -2.3718971148  MEMB      14              0.0000000000
      1708        14  PMPE      H16X            3.6152824028       15.8843169938       -2.6127772152  MEMB      14              0.0000000000
      1709        14  PMPE      H16Y            2.2261423280       14.7996859164       -2.4379293011  MEMB      14              0.0000000000
      1710        14  PMPE      H16Z            3.8453739943       14.1018845176       -3.0302516192  MEMB      14              0.0000000000
      1711        15  OYPE      N             -13.9486225894       -7.8564482779       21.8120430571  MEMB      15              0.0000000000
      1712        15  OYPE      HN1           -12.9125651919       -7.8555860451       21.7215749314  MEMB      15              0.0000000000
      1713        15  OYPE      HN2           -14.1871095761       -8.0815851487       22.7989765605  MEMB      15              0.0000000000
      1714        15  OYPE      HN3           -14.2340232273       -8.4969737570       21.0440107422  MEMB      15              0.0000000000
      1715        15  OYPE      C12           -14.6602603941       -6.5132993984       21.5559898250  MEMB      15              0.0000000000
      1716        15  OYPE      H12A          -14.3117221438       -6.0357151587       22.4966040826  MEMB      15              0.0000000000
      1717        15  OYPE      H12B          -15.7435162384       -6.7587731677       21.5310818498  MEMB      15              0.0000000000
      1718        15  OYPE      C11           -14.1082837613       -5.9206458155       20.2741423570  MEMB      15              0.0000000000
      1719        15  OYPE      H11A          -13.0096964918       -5.7555235731       20.2614304842  MEMB      15              0.0000000000
      1720        15  OYPE      H11B          -14.4826059733       -4.8817882516       20.3965305337  MEMB      15              0.0000000000
      1721        15  OYPE      P             -14.2729070114       -6.0287285721       17.6546463861  MEMB      15              0.0000000000
      1722        15  OYPE      O13           -13.4784075675       -7.1301259312       17.0129648106  MEMB      15              0.0000000000
      1723        15  OYPE      O14           -13.5710834722       -4.7526765330       17.7599043784  MEMB      15              0.0000000000
      1724        15  OYPE      O11           -15.5780655493       -5.7610929594       16.8456872648  MEMB      15              0.0000000000
      1725        15  OYPE      O12           -14.7897051273       -6.4307339541       19.0846219553  MEMB      15              0.0000000000
      1726        15  OYPE      C1            -16.6581934585       -6.6539381017       17.1920847863  MEMB      15              0.0000000000
      1727        15  OYPE      HA            -17.1512295565       -6.4294811124       18.1620618984  MEMB      15              0.0000000000
      1728        15  OYPE      HB            -16.3024213324       -7.7056703655       17.2321634320  MEMB      15              0.0000000000
      1729        15  OYPE      C2            -17.7401359100       -6.4964135792       16.0283906741  MEMB      15              0.0000000000
      1730        15  OYPE      HS            -18.5783228520       -7.1882880557       16.2587667901  MEMB      15              0.0000000000
      1731        15  OYPE      O21           -17.2162764941       -6.7178882982       14.7057396738  MEMB      15              0.0000000000
      1732        15  OYPE      C21           -16.7406513779       -7.9913362406       14.3938445782  MEMB      15              0.0000000000
      1733        15  OYPE      O22           -16.6621905104       -8.9053420196       15.1820647982  MEMB      15              0.0000000000
      1734        15  OYPE      C22           -16.1367119490       -7.8079871695       12.9510820471  MEMB      15              0.0000000000
      1735        15  OYPE      H2R           -15.0308462561       -7.7075982640       12.9871942677  MEMB      15              0.0000000000
      1736        15  OYPE      H2S           -16.5404066551       -6.8923220448       12.4684753300  MEMB      15              0.0000000000
      1737        15  OYPE      C3            -18.3601160112       -5.0674217233       16.0345425093  MEMB      15              0.0000000000
      1738        15  OYPE      HX            -18.5024248476       -4.8362311014       17.1118632680  MEMB      15              0.0000000000
      1739        15  OYPE      HY            -19.4072645388       -4.9993000797       15.6696303631  MEMB      15              0.0000000000
      1740        15  OYPE      O31           -17.5555425911       -4.0059861795       15.5458444800  MEMB      15              0.0000000000
      1741        15  OYPE      C31           -17.6345553301       -3.5515390119       14.3178437695  MEMB      15              0.0000000000
      1742        15  OYPE      O32           -18.2766321109       -4.0623185621       13.4353435876  MEMB      15              0.0000000000
      1743        15  OYPE      C32           -16.6073434666       -2.4018631574       14.1726879063  MEMB      15              0.0000000000
      1744        15  OYPE      H2X           -16.8241323814       -1.7892550474       13.2715577146  MEMB      15              0.0000000000
      1745        15  OYPE      H2Y           -16.7957142697       -1.7830971429       15.0759961469  MEMB      15              0.0000000000
      1746        15  OYPE      C23           -16.3771223061       -9.0490804410       12.1621523783  MEMB      15              0.0000000000
      1747        15  OYPE      H3R           -17.4525133507       -9.3155655896       12.0794432617  MEMB      15              0.0000000000
      1748        15  OYPE      H3S           -15.8470807936       -9.8708830421       12.6894261932  MEMB      15              0.0000000000
      1749        15  OYPE      C24           -15.9318821503       -9.0127390323       10.6248820573  MEMB      15              0.0000000000
      1750        15  OYPE      H4R           -14.8545661170       -8.8064400350       10.4483831096  MEMB      15              0.0000000000
      1751        15  OYPE      H4S           -16.6415840934       -8.3383266399       10.0997040031  MEMB      15              0.0000000000
      1752        15  OYPE      C25           -16.1226541351      -10.4535972122       10.1040587418  MEMB      15              0.0000000000
      1753        15  OYPE      H5R           -17.2224170552      -10.6003755087       10.0466240553  MEMB      15              0.0000000000
      1754        15  OYPE      H5S           -15.7185410502      -11.1694011927       10.8514793446  MEMB      15              0.0000000000
      1755        15  OYPE      C26           -15.4517492085      -10.7715330913        8.7970648672  MEMB      15              0.0000000000
      1756        15  OYPE      H6R           -15.6911146092      -11.8163133875        8.5047310169  MEMB      15              0.0000000000
      1757        15  OYPE      H6S           -14.3671195671      -10.8171003311        9.0333342714  MEMB      15              0.0000000000
      1758        15  OYPE      C27           -15.7689978378       -9.7934665373        7.6363273795  MEMB      15              0.0000000000
      1759        15  OYPE      H7R           -14.8594062215       -9.8807155838        7.0043843637  MEMB      15              0.0000000000
      1760        15  OYPE      H7S           -15.9306411522       -8.7390415114        7.9467793672  MEMB      15              0.0000000000
      1761        15  OYPE      C28           -16.9954103327      -10.1194379639        6.8417331329  MEMB      15              0.0000000000
      1762        15  OYPE      H8R           -17.1063447274       -9.4475357101        5.9639163580  MEMB      15              0.0000000000
      1763        15  OYPE      H8S           -17.8506100649      -10.0030505362        7.5413104274  MEMB      15              0.0000000000
      1764        15  OYPE      C29           -16.8989569537      -11.6131533962        6.3389594249  MEMB      15              0.0000000000
      1765        15  OYPE      H9R           -17.0641472452      -12.3873365138        7.1027345307  MEMB      15              0.0000000000
      1766        15  OYPE      C210          -16.6083984820      -11.9311315274        5.1154441525  MEMB      15              0.0000000000
      1767        15  OYPE      H10R          -16.5419078568      -12.9853397211        4.8084853916  MEMB      15              0.0000000000
      1768        15  OYPE      C211          -16.2359181740      -10.8982755397        4.0591754983  MEMB      15              0.0000000000
      1769        15  OYPE      H11R          -16.8983180923      -10.0064097527        4.0702604599  MEMB      15              0.0000000000
      1770        15  OYPE      H11S          -16.4850323289      -11.4944874739        3.1554082069  MEMB      15              0.0000000000
      1771        15  OYPE      C212          -14.8002315463      -10.3597610948        4.0188864383  MEMB      15              0.0000000000
      1772        15  OYPE      H12R          -14.4031103518      -10.0950841159        5.0221621231  MEMB      15              0.0000000000
      1773        15  OYPE      H12S          -14.8939040259       -9.4225361820        3.4296874185  MEMB      15              0.0000000000
      1774        15  OYPE      C213          -13.9319049007      -11.3405214026        3.2822854397  MEMB      15              0.0000000000
      1775        15  OYPE      H13R          -14.2166469652      -11.3829100968        2.2092310861  MEMB      15              0.0000000000
      1776        15  OYPE      H13S          -14.0323942696      -12.3809674246        3.6587090056  MEMB      15              0.0000000000
      1777        15  OYPE      C214          -12.4236606524      -11.0394514939        3.3065838688  MEMB      15              0.0000000000
      1778        15  OYPE      H14R          -12.0025131776      -11.0951145299        4.3331597768  MEMB      15              0.0000000000
      1779        15  OYPE      H14S          -12.3269163126       -9.9822370471        2.9790789771  MEMB      15              0.0000000000
      1780        15  OYPE      C215          -11.5308221698      -11.7808432131        2.3390933521  MEMB      15              0.0000000000
      1781        15  OYPE      H15R          -11.8335342229      -11.5885238461        1.2875708218  MEMB      15              0.0000000000
      1782        15  OYPE      H15S          -11.6046864653      -12.8844119032        2.4439808218  MEMB      15              0.0000000000
      1783        15  OYPE      C216          -10.0782671558      -11.3818708813        2.6559989187  MEMB      15              0.0000000000
      1784        15  OYPE      H16R           -9.8764048869      -11.7357778004        3.6895954405  MEMB      15              0.0000000000
      1785        15  OYPE      H16S          -10.0695175831      -10.2739317807        2.7379447777  MEMB      15              0.0000000000
      1786        15  OYPE      H16T           -9.3263535809      -11.6809847715        1.8947643471  MEMB      15              0.0000000000
      1787        15  OYPE      C33           -15.2490966131       -3.1018391407       14.1541438621  MEMB      15              0.0000000000
      1788        15  OYPE      H3X           -15.1635301336       -3.7399927013       15.0595495266  MEMB      15              0.0000000000
      1789        15  OYPE      H3Y           -14.5334032485       -2.2524305396       14.1788197292  MEMB      15              0.0000000000
      1790        15  OYPE      C34           -14.8814051994       -3.9380635135       12.9932582697  MEMB      15              0.0000000000
      1791        15  OYPE      H4X           -15.5016015465       -4.8231885923       12.7359038247  MEMB      15              0.0000000000
      1792        15  OYPE      H4Y           -15.1369208204       -3.3613765652       12.0786736430  MEMB      15              0.0000000000
      1793        15  OYPE      C35           -13.3405094484       -4.3647940226       13.0491660688  MEMB      15              0.0000000000
      1794        15  OYPE      H5X           -13.2582518838       -5.1914992092       13.7868064127  MEMB      15              0.0000000000
      1795        15  OYPE      H5Y           -12.7211756473       -3.5417819182       13.4655763689  MEMB      15              0.0000000000
      1796        15  OYPE      C36           -12.7132169809       -4.9657427764       11.7217389827  MEMB      15              0.0000000000
      1797        15  OYPE      H6X           -12.2493374122       -4.1297652930       11.1558070673  MEMB      15              0.0000000000
      1798        15  OYPE      H6Y           -11.9136321221       -5.7095733316       11.9259479146  MEMB      15              0.0000000000
      1799        15  OYPE      C37           -13.6380791339       -5.6608241026       10.6794423381  MEMB      15              0.0000000000
      1800        15  OYPE      H7X           -14.1770617550       -6.4331094150       11.2688439135  MEMB      15              0.0000000000
      1801        15  OYPE      H7Y           -14.3799636268       -4.9322689431       10.2881166860  MEMB      15              0.0000000000
      1802        15  OYPE      C38           -12.8989866845       -6.5277751094        9.6554679209  MEMB      15              0.0000000000
      1803        15  OYPE      H8X           -12.4397964233       -7.3840727940       10.1941885355  MEMB      15              0.0000000000
      1804        15  OYPE      H8Y           -13.6670390920       -7.0111903092        9.0145891555  MEMB      15              0.0000000000
      1805        15  OYPE      C39           -11.9749106069       -5.6731765674        8.7466198323  MEMB      15              0.0000000000
      1806        15  OYPE      H9X           -10.9200851469       -5.5914624760        9.0477288066  MEMB      15              0.0000000000
      1807        15  OYPE      C310          -12.3359700462       -4.9681985213        7.6186476424  MEMB      15              0.0000000000
      1808        15  OYPE      H10X          -11.5436655474       -4.5500408151        6.9803701258  MEMB      15              0.0000000000
      1809        15  OYPE      C311          -13.7796903735       -4.9359639392        7.0569821313  MEMB      15              0.0000000000
      1810        15  OYPE      H11X          -14.5573251909       -5.1077576823        7.8316376472  MEMB      15              0.0000000000
      1811        15  OYPE      H11Y          -14.0401354851       -3.9718209130        6.5702397739  MEMB      15              0.0000000000
      1812        15  OYPE      C312          -14.1104268890       -6.1134984752        6.0982598809  MEMB      15              0.0000000000
      1813        15  OYPE      H12X          -13.7266326125       -7.0929527746        6.4556007454  MEMB      15              0.0000000000
      1814        15  OYPE      H12Y          -13.5112772859       -5.9864134654        5.1713345914  MEMB      15              0.0000000000
      1815        15  OYPE      C313          -15.5437442776       -6.2058065652        5.6597851728  MEMB      15              0.0000000000
      1816        15  OYPE      H13X          -15.6327094326       -7.1634524120        5.1036187188  MEMB      15              0.0000000000
      1817        15  OYPE      H13Y          -16.1749772080       -6.3936328959        6.5545401961  MEMB      15              0.0000000000
      1818        15  OYPE      C314          -16.0547496189       -5.1045382034        4.7647906321  MEMB      15              0.0000000000
      1819        15  OYPE      H14X          -15.3822272556       -5.1208983482        3.8806154533  MEMB      15              0.0000000000
      1820        15  OYPE      H14Y          -16.0276631957       -4.1674565476        5.3610006770  MEMB      15              0.0000000000
      1821        15  OYPE      C315          -17.5229179907       -5.3857818523        4.4084529543  MEMB      15              0.0000000000
      1822        15  OYPE      H15X          -18.0094121103       -4.4016938093        4.2375289770  MEMB      15              0.0000000000
      1823        15  OYPE      H15Y          -18.0345644810       -5.7601009835        5.3208260073  MEMB      15              0.0000000000
      1824        15  OYPE      C316          -17.7826862963       -6.4525961242        3.3373186443  MEMB      15              0.0000000000
      1825        15  OYPE      H16X          -18.8589998751       -6.3782108117        3.0721072818  MEMB      15              0.0000000000
      1826        15  OYPE      H16Y          -17.7017270779       -7.4600185759        3.7986937644  MEMB      15              0.0000000000
      1827        15  OYPE      C317          -16.9840088710       -6.2945898881        2.0691017235  MEMB      15              0.0000000000
      1828        15  OYPE      H17X          -15.9428257506       -5.9343453363        2.2122197582  MEMB      15              0.0000000000
      1829        15  OYPE      H17Y          -17.5801696667       -5.5752456854        1.4678891269  MEMB      15              0.0000000000
      1830        15  OYPE      C318          -17.0573692877       -7.5319314104        1.1681028064  MEMB      15              0.0000000000
      1831        15  OYPE      H18X          -18.0692829229       -7.9822717999        1.0812391751  MEMB      15              0.0000000000
      1832        15  OYPE      H18Y          -16.6818817484       -7.3367870245        0.1408489529  MEMB      15              0.0000000000
      1833        15  OYPE      H18Z          -16.4660390580       -8.3811712188        1.5723821927  MEMB      15              0.0000000000
      1834        16  PYPG      C13             9.9386136235       11.5666685583       19.5168678619  MEMB      16              0.0000000000
      1835        16  PYPG      H13A            9.2570915898       10.7803139617       19.1276443958  MEMB      16              0.0000000000
      1836        16  PYPG      H13B           10.5766902060       11.1919302193       20.3455719922  MEMB      16              0.0000000000
      1837        16  PYPG      OC3             9.0154864946       12.5491260399       19.9035966129  MEMB      16              0.0000000000
      1838        16  PYPG      HO3             9.5269013193       13.3220552502       20.1538667708  MEMB      16              0.0000000000
      1839        16  PYPG      C12            10.9747563763       12.0605393049       18.4054163510  MEMB      16              0.0000000000
      1840        16  PYPG      H12A           11.5052991332       12.9495047552       18.8189908320  MEMB      16              0.0000000000
      1841        16  PYPG      OC2            10.2760617919       12.4719277461       17.2295650347  MEMB      16              0.0000000000
      1842        16  PYPG      HO2            11.0001867217       12.6199170700       16.5826808982  MEMB      16              0.0000000000
      1843        16  PYPG      C11            12.0188606438       10.9500128036       18.0905076901  MEMB      16              0.0000000000
      1844        16  PYPG      H11A           12.6608474188       11.3667001726       17.2851843757  MEMB      16              0.0000000000
      1845        16  PYPG      H11B           11.3792272869       10.1051804236       17.7566687960  MEMB      16              0.0000000000
      1846        16  PYPG      P              14.3258224961       11.0615200062       19.4495095975  MEMB      16              0.0000000000
      1847        16  PYPG      O13            15.1570639959        9.9408871188       19.9401670012  MEMB      16              0.0000000000
      1848        16  PYPG      O14            14.2450670505       12.2949568960       20.2469043654  MEMB      16              0.0000000000
      1849        16  PYPG      O11            14.7963016893       11.4305603363       18.0450874802  MEMB      16              0.0000000000
      1850        16  PYPG      O12            12.7606308790       10.4932272055       19.1723780123  MEMB      16              0.0000000000
      1851        16  PYPG      C1             15.7748838252       12.4870070473       18.0044588783  MEMB      16              0.0000000000
      1852        16  PYPG      HA             16.4807680319       12.5429408626       18.8605665033  MEMB      16              0.0000000000
      1853        16  PYPG      HB             15.1104407813       13.3773246110       18.0175393290  MEMB      16              0.0000000000
      1854        16  PYPG      C2             16.4707510265       12.4746547401       16.5983717692  MEMB      16              0.0000000000
      1855        16  PYPG      HS             16.8516192023       13.5113080850       16.4775004690  MEMB      16              0.0000000000
      1856        16  PYPG      O21            15.6358371727       11.9422718412       15.6074123136  MEMB      16              0.0000000000
      1857        16  PYPG      C21            15.0262407414       12.7507721476       14.7394808830  MEMB      16              0.0000000000
      1858        16  PYPG      O22            15.0396727090       13.9922187847       14.7607452808  MEMB      16              0.0000000000
      1859        16  PYPG      C22            14.1217290987       11.9914359326       13.8448804871  MEMB      16              0.0000000000
      1860        16  PYPG      H2R            13.7634838226       11.0699993211       14.3517689649  MEMB      16              0.0000000000
      1861        16  PYPG      H2S            14.6877457422       11.8492880560       12.8995024462  MEMB      16              0.0000000000
      1862        16  PYPG      C3             17.7428367939       11.6155374520       16.6545128628  MEMB      16              0.0000000000
      1863        16  PYPG      HX             18.1374137658       12.0824203671       17.5822254303  MEMB      16              0.0000000000
      1864        16  PYPG      HY             18.5421183361       11.5513466217       15.8855202113  MEMB      16              0.0000000000
      1865        16  PYPG      O31            17.3816839991       10.2696918887       17.0612800839  MEMB      16              0.0000000000
      1866        16  PYPG      C31            17.1252598580        9.4436029369       15.9600563598  MEMB      16              0.0000000000
      1867        16  PYPG      O32            17.4131309337        9.7073249491       14.8006475405  MEMB      16              0.0000000000
      1868        16  PYPG      C32            16.1241302666        8.3145480356       16.4470538891  MEMB      16              0.0000000000
      1869        16  PYPG      H2X            16.6357352090        7.6818246226       17.2035211267  MEMB      16              0.0000000000
      1870        16  PYPG      H2Y            15.1956893549        8.7685152541       16.8547697783  MEMB      16              0.0000000000
      1871        16  PYPG      C23            12.8836372491       12.9028439542       13.5334438402  MEMB      16              0.0000000000
      1872        16  PYPG      H3R            13.1344626129       13.4935024022       12.6265093486  MEMB      16              0.0000000000
      1873        16  PYPG      H3S            12.6792200336       13.6129787346       14.3630478149  MEMB      16              0.0000000000
      1874        16  PYPG      C24            11.5252108310       12.1743299208       13.1724921510  MEMB      16              0.0000000000
      1875        16  PYPG      H4R            10.7221470189       12.8950720005       13.4369543102  MEMB      16              0.0000000000
      1876        16  PYPG      H4S            11.4003476181       11.2830813542       13.8239568401  MEMB      16              0.0000000000
      1877        16  PYPG      C25            11.2296572558       12.1556949898       11.6900392782  MEMB      16              0.0000000000
      1878        16  PYPG      H5R            11.2087971318       13.2224469288       11.3803197791  MEMB      16              0.0000000000
      1879        16  PYPG      H5S            10.1676339190       11.8833939041       11.5103743255  MEMB      16              0.0000000000
      1880        16  PYPG      C26            12.0955639725       11.2150883289       10.7896072644  MEMB      16              0.0000000000
      1881        16  PYPG      H6R            12.4628420261       10.3729636051       11.4143102375  MEMB      16              0.0000000000
      1882        16  PYPG      H6S            12.9997303987       11.7733920666       10.4654150237  MEMB      16              0.0000000000
      1883        16  PYPG      C27            11.5307316511       10.6292172094        9.4754241986  MEMB      16              0.0000000000
      1884        16  PYPG      H7R            12.3934113022       10.2734886535        8.8724621676  MEMB      16              0.0000000000
      1885        16  PYPG      H7S            10.9185303711       11.4067599958        8.9704904635  MEMB      16              0.0000000000
      1886        16  PYPG      C28            10.5229302276        9.4870573288        9.8736606404  MEMB      16              0.0000000000
      1887        16  PYPG      H8R             9.9295858269        9.8887528023       10.7227212578  MEMB      16              0.0000000000
      1888        16  PYPG      H8S            10.9906191857        8.5518076553       10.2490217184  MEMB      16              0.0000000000
      1889        16  PYPG      C29             9.5688443885        9.0482208478        8.8153083864  MEMB      16              0.0000000000
      1890        16  PYPG      H9R             8.7128285532        9.7387799969        8.7962126930  MEMB      16              0.0000000000
      1891        16  PYPG      C210            9.7505855155        7.9605319869        8.0810576053  MEMB      16              0.0000000000
      1892        16  PYPG      H10R            8.9251298112        7.5996841653        7.4498590739  MEMB      16              0.0000000000
      1893        16  PYPG      C211           10.8968001092        7.0283668964        8.2501201399  MEMB      16              0.0000000000
      1894        16  PYPG      H11R           10.5938492584        6.0802797337        8.7437523477  MEMB      16              0.0000000000
      1895        16  PYPG      H11S           11.7138906851        7.4665273527        8.8622478005  MEMB      16              0.0000000000
      1896        16  PYPG      C212           11.6172176057        6.5112844869        6.9817095766  MEMB      16              0.0000000000
      1897        16  PYPG      H12R           10.9461996920        5.8243606718        6.4229686486  MEMB      16              0.0000000000
      1898        16  PYPG      H12S           12.4835440488        5.9017719269        7.3168126322  MEMB      16              0.0000000000
      1899        16  PYPG      C213           12.0821891446        7.6871164608        6.1553196095  MEMB      16              0.0000000000
      1900        16  PYPG      H13R           12.5549254858        8.4067001025        6.8574880558  MEMB      16              0.0000000000
      1901        16  PYPG      H13S           11.2473721168        8.2042984136        5.6357772698  MEMB      16              0.0000000000
      1902        16  PYPG      C214           13.1504708268        7.3667137029        5.1566634078  MEMB      16              0.0000000000
      1903        16  PYPG      H14R           13.4350436965        8.2752089100        4.5839721120  MEMB      16              0.0000000000
      1904        16  PYPG      H14S           14.0185146149        6.9815208433        5.7332462539  MEMB      16              0.0000000000
      1905        16  PYPG      C215           12.7279501208        6.3395094652        4.0621764227  MEMB      16              0.0000000000
      1906        16  PYPG      H15R           11.7712209067        6.5977009266        3.5598550853  MEMB      16              0.0000000000
      1907        16  PYPG      H15S           12.4083701243        5.3562449315        4.4688458975  MEMB      16              0.0000000000
      1908        16  PYPG      C216           13.8069282970        6.1567351007        2.9548145224  MEMB      16              0.0000000000
      1909        16  PYPG      H16R           13.3871162020        6.1694317816        1.9262623472  MEMB      16              0.0000000000
      1910        16  PYPG      H16S           14.2724257390        5.1487247629        2.9941748946  MEMB      16              0.0000000000
      1911        16  PYPG      H16T           14.5905677161        6.9057950623        3.1979998591  MEMB      16              0.0000000000
      1912        16  PYPG      C33            15.6074335160        7.3416541028       15.3154262656  MEMB      16              0.0000000000
      1913        16  PYPG      H3X            15.3494246243        6.3869464658       15.8216729221  MEMB      16              0.0000000000
      1914        16  PYPG      H3Y            16.3589446565        7.1324176149       14.5243682553  MEMB      16              0.0000000000
      1915        16  PYPG      C34            14.3234862285        7.6670605899       14.5024384641  MEMB      16              0.0000000000
      1916        16  PYPG      H4X            13.6275699604        8.3031369078       15.0901701876  MEMB      16              0.0000000000
      1917        16  PYPG      H4Y            13.6880718014        6.7574103820       14.4467085164  MEMB      16              0.0000000000
      1918        16  PYPG      C35            14.5193400484        8.3345306222       13.1145458790  MEMB      16              0.0000000000
      1919        16  PYPG      H5X            15.2079098257        9.2058013188       13.0816820505  MEMB      16              0.0000000000
      1920        16  PYPG      H5Y            13.5596569451        8.7894561027       12.7883985298  MEMB      16              0.0000000000
      1921        16  PYPG      C36            14.9946608469        7.4689506728       11.9654875716  MEMB      16              0.0000000000
      1922        16  PYPG      H6X            14.2606891801        6.6396276932       11.8769984462  MEMB      16              0.0000000000
      1923        16  PYPG      H6Y            16.0675034140        7.1878238836       12.0310453872  MEMB      16              0.0000000000
      1924        16  PYPG      C37            14.8803051635        8.2903294040       10.5615451586  MEMB      16              0.0000000000
      1925        16  PYPG      H7X            14.6266380972        7.6273417412        9.7068984051  MEMB      16              0.0000000000
      1926        16  PYPG      H7Y            13.9454601955        8.8904311931       10.5777835260  MEMB      16              0.0000000000
      1927        16  PYPG      C38            16.0793227194        9.2584069111       10.2386477110  MEMB      16              0.0000000000
      1928        16  PYPG      H8X            16.9284132388        8.7351678066        9.7491713085  MEMB      16              0.0000000000
      1929        16  PYPG      H8Y            16.5527887296        9.8056212398       11.0816816794  MEMB      16              0.0000000000
      1930        16  PYPG      C39            15.6424955121       10.4612285880        9.3302504586  MEMB      16              0.0000000000
      1931        16  PYPG      H9X            16.5070507616       11.0524835886        8.9597341652  MEMB      16              0.0000000000
      1932        16  PYPG      H9Y            15.0694285360       11.1681059564        9.9676202776  MEMB      16              0.0000000000
      1933        16  PYPG      C310           15.0186466052       10.0941617026        7.9671455363  MEMB      16              0.0000000000
      1934        16  PYPG      H10X           14.1615471197        9.3876906384        7.9426472215  MEMB      16              0.0000000000
      1935        16  PYPG      H10Y           15.8925562370        9.6731844923        7.4254982321  MEMB      16              0.0000000000
      1936        16  PYPG      C311           14.4174769515       11.2842407232        7.2258943095  MEMB      16              0.0000000000
      1937        16  PYPG      H11X           15.2047622124       12.0033177396        6.9137551684  MEMB      16              0.0000000000
      1938        16  PYPG      H11Y           13.6695123660       11.8839248417        7.7873649782  MEMB      16              0.0000000000
      1939        16  PYPG      C312           13.7221408327       10.8972489190        5.9057911184  MEMB      16              0.0000000000
      1940        16  PYPG      H12X           14.4380137384       10.3119896285        5.2899030663  MEMB      16              0.0000000000
      1941        16  PYPG      H12Y           12.7561287779       10.3706189563        6.0600714457  MEMB      16              0.0000000000
      1942        16  PYPG      C313           13.3967844256       12.1061935571        5.0175015551  MEMB      16              0.0000000000
      1943        16  PYPG      H13X           12.6456530092       12.6581644815        5.6220272421  MEMB      16              0.0000000000
      1944        16  PYPG      H13Y           14.2769018331       12.7819886644        5.0724105796  MEMB      16              0.0000000000
      1945        16  PYPG      C314           12.8620659733       11.8008990386        3.6297673311  MEMB      16              0.0000000000
      1946        16  PYPG      H14X           12.0739141521       11.0497903284        3.8510661641  MEMB      16              0.0000000000
      1947        16  PYPG      H14Y           12.3980394956       12.7345742936        3.2460335379  MEMB      16              0.0000000000
      1948        16  PYPG      C315           13.9444305013       11.2012439111        2.6633825594  MEMB      16              0.0000000000
      1949        16  PYPG      H15X           14.2458854608       10.2648534526        3.1797344041  MEMB      16              0.0000000000
      1950        16  PYPG      H15Y           13.4027325640       11.0131297460        1.7118061451  MEMB      16              0.0000000000
      1951        16  PYPG      C316           15.2047254800       12.1530390263        2.4388928463  MEMB      16              0.0000000000
      1952        16  PYPG      H16X           15.9591767599       11.7446044602        1.7329847826  MEMB      16              0.0000000000
      1953        16  PYPG      H16Y           15.5581780983       12.5105401592        3.4296423757  MEMB      16              0.0000000000
      1954        16  PYPG      H16Z           14.7772990309       13.0295208679        1.9065321437  MEMB      16              0.0000000000
      1955        17  PMPE      N             -10.4763665442       16.6721548203       21.4289888416  MEMB      17              0.0000000000
      1956        17  PMPE      HN1            -9.8576731564       16.0527949416       21.9904260981  MEMB      17              0.0000000000
      1957        17  PMPE      HN2            -9.9250516010       17.4747736444       21.0636740581  MEMB      17              0.0000000000
      1958        17  PMPE      HN3           -11.1573540459       17.2339469489       21.9787574130  MEMB      17              0.0000000000
      1959        17  PMPE      C12           -11.4184013201       15.9676775079       20.4000160489  MEMB      17              0.0000000000
      1960        17  PMPE      H12A          -11.6366496008       16.8092476035       19.7083164023  MEMB      17              0.0000000000
      1961        17  PMPE      H12B          -12.2854800929       15.4514467884       20.8647754679  MEMB      17              0.0000000000
      1962        17  PMPE      C11           -10.6743403615       14.9923511512       19.5160343794  MEMB      17              0.0000000000
      1963        17  PMPE      H11A          -11.3351821419       14.6275092120       18.7008660403  MEMB      17              0.0000000000
      1964        17  PMPE      H11B          -10.4627727655       14.1447020880       20.2023660475  MEMB      17              0.0000000000
      1965        17  PMPE      P              -8.5003247981       14.7128941927       18.1697459010  MEMB      17              0.0000000000
      1966        17  PMPE      O13            -9.1720568978       13.4506788475       17.6872203754  MEMB      17              0.0000000000
      1967        17  PMPE      O14            -7.2872195522       14.5989692257       19.0219669880  MEMB      17              0.0000000000
      1968        17  PMPE      O11            -8.1711009760       15.4759950473       16.8508650957  MEMB      17              0.0000000000
      1969        17  PMPE      O12            -9.5528180981       15.6455664254       18.9251623726  MEMB      17              0.0000000000
      1970        17  PMPE      C1             -7.4556930847       16.7771789124       16.9306063934  MEMB      17              0.0000000000
      1971        17  PMPE      HA             -6.4389377503       16.5819873283       17.3336320360  MEMB      17              0.0000000000
      1972        17  PMPE      HB             -7.9679866119       17.5758304154       17.5085615894  MEMB      17              0.0000000000
      1973        17  PMPE      C2             -7.2500730115       17.4539155310       15.5095688365  MEMB      17              0.0000000000
      1974        17  PMPE      HS             -8.2983469885       17.7498703127       15.2908145780  MEMB      17              0.0000000000
      1975        17  PMPE      O21            -6.5371389589       16.5736702712       14.6242878697  MEMB      17              0.0000000000
      1976        17  PMPE      C21            -7.1265702403       16.3436422727       13.4929856900  MEMB      17              0.0000000000
      1977        17  PMPE      O22            -8.0634189694       16.9114259720       13.0125434247  MEMB      17              0.0000000000
      1978        17  PMPE      C22            -6.2050972566       15.4045993336       12.7237229351  MEMB      17              0.0000000000
      1979        17  PMPE      H2R            -6.7433616585       14.5287859207       12.3023641170  MEMB      17              0.0000000000
      1980        17  PMPE      H2S            -5.3806166181       15.0330602268       13.3691002764  MEMB      17              0.0000000000
      1981        17  PMPE      C3             -6.3835018991       18.7039305575       15.7321578077  MEMB      17              0.0000000000
      1982        17  PMPE      HX             -5.3544509350       18.3828552011       16.0010178857  MEMB      17              0.0000000000
      1983        17  PMPE      HY             -6.6663850726       19.3466432441       16.5930984110  MEMB      17              0.0000000000
      1984        17  PMPE      O31            -6.3144157856       19.5403778278       14.5406632523  MEMB      17              0.0000000000
      1985        17  PMPE      C31            -7.3756316209       20.1941502233       14.1004122367  MEMB      17              0.0000000000
      1986        17  PMPE      O32            -8.3926907914       20.3849420379       14.8001101197  MEMB      17              0.0000000000
      1987        17  PMPE      C32            -7.0624700631       20.6838024803       12.6504600171  MEMB      17              0.0000000000
      1988        17  PMPE      H2X            -6.4881370955       19.9241307991       12.0783050102  MEMB      17              0.0000000000
      1989        17  PMPE      H2Y            -6.3107601879       21.4964951945       12.7441823907  MEMB      17              0.0000000000
      1990        17  PMPE      C23            -5.4682834893       15.9289944417       11.4706111506  MEMB      17              0.0000000000
      1991        17  PMPE      H3R            -6.2285984073       16.2442493935       10.7243825388  MEMB      17              0.0000000000
      1992        17  PMPE      H3S            -5.0105526445       14.9962193337       11.0772487277  MEMB      17              0.0000000000
      1993        17  PMPE      C24            -4.3907105677       17.0184223907       11.7365620350  MEMB      17              0.0000000000
      1994        17  PMPE      H4R            -3.6337924202       16.5543290832       12.4044043459  MEMB      17              0.0000000000
      1995        17  PMPE      H4S            -4.8973471688       17.7285049732       12.4246197009  MEMB      17              0.0000000000
      1996        17  PMPE      C25            -3.9421087677       17.8774514786       10.5878137112  MEMB      17              0.0000000000
      1997        17  PMPE      H5R            -3.1597603221       18.6368846613       10.8011518775  MEMB      17              0.0000000000
      1998        17  PMPE      H5S            -4.8391221368       18.3715080268       10.1570044900  MEMB      17              0.0000000000
      1999        17  PMPE      C26            -3.4719869583       17.0106339632        9.4096959465  MEMB      17              0.0000000000
      2000        17  PMPE      H6R            -4.1840591418       16.1834323046        9.2023043851  MEMB      17              0.0000000000
      2001        17  PMPE      H6S            -2.5709223433       16.4589791111        9.7533249689  MEMB      17              0.0000000000
      2002        17  PMPE      C27            -3.2251078085       17.6644042761        8.0601061297  MEMB      17              0.0000000000
      2003        17  PMPE      H7R            -2.3783223657       18.3556685298        7.8615380869  MEMB      17              0.0000000000
      2004        17  PMPE      H7S            -4.1129841115       18.3012886399        7.8591697095  MEMB      17              0.0000000000
      2005        17  PMPE      C28            -3.1427820936       16.8089544400        6.8201521772  MEMB      17              0.0000000000
      2006        17  PMPE      H8R            -2.3673640761       16.0346882637        7.0033477709  MEMB      17              0.0000000000
      2007        17  PMPE      H8S            -2.9027552829       17.4459712642        5.9421333841  MEMB      17              0.0000000000
      2008        17  PMPE      C29            -4.4771906342       16.0813448287        6.5232641179  MEMB      17              0.0000000000
      2009        17  PMPE      H9R            -5.4105305229       16.6275617130        6.7779105372  MEMB      17              0.0000000000
      2010        17  PMPE      C217           -4.5331252696       14.6982331867        7.1567222825  MEMB      17              0.0000000000
      2011        17  PMPE      H17R           -5.4421867796       14.2430251900        7.5299268785  MEMB      17              0.0000000000
      2012        17  PMPE      H17S           -3.5874556738       14.1807979496        7.2609326434  MEMB      17              0.0000000000
      2013        17  PMPE      C210           -4.6853769684       14.8201754717        5.6404644573  MEMB      17              0.0000000000
      2014        17  PMPE      H10R           -5.7245823060       14.8795470843        5.2520726253  MEMB      17              0.0000000000
      2015        17  PMPE      C211           -3.4754230657       14.3392734968        4.8270003970  MEMB      17              0.0000000000
      2016        17  PMPE      H11R           -3.7479999999       13.4963703080        4.1565247989  MEMB      17              0.0000000000
      2017        17  PMPE      H11S           -2.6552146811       14.0290906919        5.5091768606  MEMB      17              0.0000000000
      2018        17  PMPE      C212           -3.0808543074       15.4320975392        3.6974048139  MEMB      17              0.0000000000
      2019        17  PMPE      H12R           -2.5070371038       14.8676963333        2.9315673908  MEMB      17              0.0000000000
      2020        17  PMPE      H12S           -2.3727187034       16.1404479672        4.1781381390  MEMB      17              0.0000000000
      2021        17  PMPE      C213           -4.2606466583       16.1205264859        3.0279911973  MEMB      17              0.0000000000
      2022        17  PMPE      H13R           -4.9490551291       16.6012970394        3.7555023363  MEMB      17              0.0000000000
      2023        17  PMPE      H13S           -4.9223991845       15.3293442893        2.6151525727  MEMB      17              0.0000000000
      2024        17  PMPE      C214           -3.7703568840       17.1756952449        2.0674809750  MEMB      17              0.0000000000
      2025        17  PMPE      H14R           -3.0832345320       16.7662995127        1.2963918476  MEMB      17              0.0000000000
      2026        17  PMPE      H14S           -3.1923472883       17.9182949631        2.6580490546  MEMB      17              0.0000000000
      2027        17  PMPE      C215           -4.9436298972       17.8342584923        1.3241939082  MEMB      17              0.0000000000
      2028        17  PMPE      H15R           -5.7288341888       18.0165253142        2.0887560884  MEMB      17              0.0000000000
      2029        17  PMPE      H15S           -5.3311065672       17.0458517472        0.6440493240  MEMB      17              0.0000000000
      2030        17  PMPE      C216           -4.5829340898       19.2027843138        0.5849319765  MEMB      17              0.0000000000
      2031        17  PMPE      H16R           -4.2920515047       20.0205510619        1.2784489190  MEMB      17              0.0000000000
      2032        17  PMPE      H16S           -3.8248230503       19.2058979449       -0.2272108216  MEMB      17              0.0000000000
      2033        17  PMPE      H16T           -5.5183866854       19.4978657582        0.0632272195  MEMB      17              0.0000000000
      2034        17  PMPE      C33            -8.3705870320       21.1688411042       11.8334747174  MEMB      17              0.0000000000
      2035        17  PMPE      H3X            -8.0076477309       21.6484611006       10.8993645410  MEMB      17              0.0000000000
      2036        17  PMPE      H3Y            -8.9992467396       21.8580837429       12.4368420798  MEMB      17              0.0000000000
      2037        17  PMPE      C34            -9.2324346870       19.9704530035       11.3708225622  MEMB      17              0.0000000000
      2038        17  PMPE      H4X           -10.2401108799       20.3464033498       11.0923065208  MEMB      17              0.0000000000
      2039        17  PMPE      H4Y            -9.4383389783       19.1587880559       12.1009758415  MEMB      17              0.0000000000
      2040        17  PMPE      C35            -8.7434390106       19.2485908400       10.0662759174  MEMB      17              0.0000000000
      2041        17  PMPE      H5X            -7.9209552941       18.5160889863       10.2121609834  MEMB      17              0.0000000000
      2042        17  PMPE      H5Y            -8.4112929235       19.9964448022        9.3148013599  MEMB      17              0.0000000000
      2043        17  PMPE      C36            -9.8749464504       18.4508146016        9.3727396879  MEMB      17              0.0000000000
      2044        17  PMPE      H6X           -10.7423373408       19.1377799707        9.4729047648  MEMB      17              0.0000000000
      2045        17  PMPE      H6Y           -10.0113569763       17.5515514469       10.0107358532  MEMB      17              0.0000000000
      2046        17  PMPE      C37            -9.6420166775       17.9913968184        7.9388369452  MEMB      17              0.0000000000
      2047        17  PMPE      H7X            -8.7960801596       17.2850902949        8.0797035452  MEMB      17              0.0000000000
      2048        17  PMPE      H7Y            -9.3501339349       18.9733876840        7.5089308836  MEMB      17              0.0000000000
      2049        17  PMPE      C38           -10.8082069727       17.2759300388        7.2490993735  MEMB      17              0.0000000000
      2050        17  PMPE      H8X           -11.7117972558       17.8060136190        7.6190413870  MEMB      17              0.0000000000
      2051        17  PMPE      H8Y           -10.8992576470       16.2374655247        7.6333146965  MEMB      17              0.0000000000
      2052        17  PMPE      C39           -10.6412679081       17.2482007450        5.6935805124  MEMB      17              0.0000000000
      2053        17  PMPE      H9X           -10.2830866804       18.2523382374        5.3809538525  MEMB      17              0.0000000000
      2054        17  PMPE      H9Y           -11.6080386657       17.1084948148        5.1642809538  MEMB      17              0.0000000000
      2055        17  PMPE      C310           -9.6846369420       16.1413850591        5.2996707209  MEMB      17              0.0000000000
      2056        17  PMPE      H10X          -10.0110540298       15.2413620650        5.8633471495  MEMB      17              0.0000000000
      2057        17  PMPE      H10Y           -8.6394113461       16.2780400286        5.6505977783  MEMB      17              0.0000000000
      2058        17  PMPE      C311           -9.7636647139       15.9534674066        3.7793737179  MEMB      17              0.0000000000
      2059        17  PMPE      H11X           -9.1818333816       16.7352564199        3.2458951680  MEMB      17              0.0000000000
      2060        17  PMPE      H11Y          -10.7808574657       16.0014596067        3.3351485691  MEMB      17              0.0000000000
      2061        17  PMPE      C312           -9.2111043709       14.5524383100        3.4538812487  MEMB      17              0.0000000000
      2062        17  PMPE      H12X           -9.9052203877       13.9742695887        4.1005993292  MEMB      17              0.0000000000
      2063        17  PMPE      H12Y           -8.1675061015       14.5430970181        3.8348487658  MEMB      17              0.0000000000
      2064        17  PMPE      C313           -9.2944388174       14.1926016298        1.9790737936  MEMB      17              0.0000000000
      2065        17  PMPE      H13X           -9.1964613985       15.1579242051        1.4378974687  MEMB      17              0.0000000000
      2066        17  PMPE      H13Y          -10.3256644540       13.8726682077        1.7172777833  MEMB      17              0.0000000000
      2067        17  PMPE      C314           -8.2353569050       13.1037382061        1.6903159964  MEMB      17              0.0000000000
      2068        17  PMPE      H14X           -8.5850455007       12.5839787658        0.7727708743  MEMB      17              0.0000000000
      2069        17  PMPE      H14Y           -8.2815444006       12.3581514315        2.5126841937  MEMB      17              0.0000000000
      2070        17  PMPE      C315           -6.8410067741       13.7275079048        1.4540295675  MEMB      17              0.0000000000
      2071        17  PMPE      H15X           -6.5336939856       14.3330657701        2.3333356951  MEMB      17              0.0000000000
      2072        17  PMPE      H15Y           -6.9009347160       14.3853840147        0.5607591691  MEMB      17              0.0000000000
      2073        17  PMPE      C316           -5.7423784618       12.6633443930        1.2330933429  MEMB      17              0.0000000000
      2074        17  PMPE      H16X           -5.9631257972       11.9643047196        0.3982673787  MEMB      17              0.0000000000
      2075        17  PMPE      H16Y           -5.4678590145       12.1318521588        2.1692968004  MEMB      17              0.0000000000
      2076        17  PMPE      H16Z           -4.7576938749       13.1258970274        1.0077882519  MEMB      17              0.0000000000
      2077        18  QMPE      N               6.1808187878      -19.2658046758       20.1660685352  MEMB      18              0.0000000000
      2078        18  QMPE      HN1             6.6628805522      -18.5554777912       20.7531393781  MEMB      18              0.0000000000
      2079        18  QMPE      HN2             5.5360250754      -19.6263005813       20.8981092533  MEMB      18              0.0000000000
      2080        18  QMPE      HN3             6.7394667834      -20.0486795381       19.7703166666  MEMB      18              0.0000000000
      2081        18  QMPE      C12             5.4337676717      -18.7787224779       19.0134365812  MEMB      18              0.0000000000
      2082        18  QMPE      H12A            4.5330729453      -18.2236727686       19.3525385539  MEMB      18              0.0000000000
      2083        18  QMPE      H12B            5.1033672488      -19.6610731924       18.4246974769  MEMB      18              0.0000000000
      2084        18  QMPE      C11             6.3608918536      -17.8931784745       18.1278358058  MEMB      18              0.0000000000
      2085        18  QMPE      H11A            5.6889698918      -17.5543969020       17.3104810567  MEMB      18              0.0000000000
      2086        18  QMPE      H11B            7.0845645351      -18.6078241772       17.6807335598  MEMB      18              0.0000000000
      2087        18  QMPE      P               8.4334946843      -16.5376519369       18.9963071100  MEMB      18              0.0000000000
      2088        18  QMPE      O13             8.7766564033      -17.8115372771       19.5642272627  MEMB      18              0.0000000000
      2089        18  QMPE      O14             8.6765070770      -15.2508803634       19.7901832553  MEMB      18              0.0000000000
      2090        18  QMPE      O11             9.0553171618      -16.4616709497       17.5626517663  MEMB      18              0.0000000000
      2091        18  QMPE      O12             6.8273720274      -16.6369133167       18.7792896830  MEMB      18              0.0000000000
      2092        18  QMPE      C1              8.8882656304      -15.1560678415       16.9597645886  MEMB      18              0.0000000000
      2093        18  QMPE      HA              9.7845627272      -14.8962744788       16.3568717168  MEMB      18              0.0000000000
      2094        18  QMPE      HB              8.8875540553      -14.3300711584       17.7027651203  MEMB      18              0.0000000000
      2095        18  QMPE      C2              7.6645235101      -15.0870438933       16.1043648824  MEMB      18              0.0000000000
      2096        18  QMPE      HS              6.7835490892      -15.1273063257       16.7800748937  MEMB      18              0.0000000000
      2097        18  QMPE      O21             7.7814375813      -16.1956370275       15.2914924969  MEMB      18              0.0000000000
      2098        18  QMPE      C21             6.7139548413      -16.8204799882       14.7587435518  MEMB      18              0.0000000000
      2099        18  QMPE      O22             5.5603944062      -16.6119860840       15.1964104442  MEMB      18              0.0000000000
      2100        18  QMPE      C22             7.0550243090      -17.5790591593       13.5289933086  MEMB      18              0.0000000000
      2101        18  QMPE      H2R             7.5768878830      -18.5237488167       13.7926990670  MEMB      18              0.0000000000
      2102        18  QMPE      H2S             7.7664875723      -16.8891609834       13.0268164452  MEMB      18              0.0000000000
      2103        18  QMPE      C3              7.4234224717      -13.7757168253       15.2819793300  MEMB      18              0.0000000000
      2104        18  QMPE      HX              7.2537497595      -12.8791498124       15.9157771873  MEMB      18              0.0000000000
      2105        18  QMPE      HY              6.4126088719      -13.9489181310       14.8546874500  MEMB      18              0.0000000000
      2106        18  QMPE      O31             8.4841691817      -13.5017811808       14.3296075644  MEMB      18              0.0000000000
      2107        18  QMPE      C31             8.2257472318      -13.8945676369       13.0610494501  MEMB      18              0.0000000000
      2108        18  QMPE      O32             7.1121237511      -14.2277524804       12.6726308351  MEMB      18              0.0000000000
      2109        18  QMPE      C32             9.3750677832      -13.6617179684       12.1118165595  MEMB      18              0.0000000000
      2110        18  QMPE      H2X             9.3558177277      -12.6598604392       11.6319916943  MEMB      18              0.0000000000
      2111        18  QMPE      H2Y            10.3935537360      -13.8609107551       12.5084645402  MEMB      18              0.0000000000
      2112        18  QMPE      C23             5.8340611166      -17.8786425227       12.6490009240  MEMB      18              0.0000000000
      2113        18  QMPE      H3R             5.4462110504      -16.8792229442       12.3573615139  MEMB      18              0.0000000000
      2114        18  QMPE      H3S             4.9820876751      -18.3675470465       13.1680718720  MEMB      18              0.0000000000
      2115        18  QMPE      C24             6.0756331638      -18.8065851277       11.4301655082  MEMB      18              0.0000000000
      2116        18  QMPE      H4R             5.9828038301      -19.8787292901       11.7062281713  MEMB      18              0.0000000000
      2117        18  QMPE      H4S             7.1315140700      -18.6574261267       11.1184153860  MEMB      18              0.0000000000
      2118        18  QMPE      C25             5.0429224682      -18.5825775402       10.2796222048  MEMB      18              0.0000000000
      2119        18  QMPE      H5R             4.0894152933      -18.3243675513       10.7880245498  MEMB      18              0.0000000000
      2120        18  QMPE      H5S             4.6815769569      -19.5412297899        9.8498126318  MEMB      18              0.0000000000
      2121        18  QMPE      C26             5.2887935278      -17.6395978964        9.1511259681  MEMB      18              0.0000000000
      2122        18  QMPE      H6R             6.1373720156      -17.9620115259        8.5105908333  MEMB      18              0.0000000000
      2123        18  QMPE      H6S             5.5851676574      -16.6483064589        9.5558775647  MEMB      18              0.0000000000
      2124        18  QMPE      C27             4.1036454437      -17.3959042771        8.1835970736  MEMB      18              0.0000000000
      2125        18  QMPE      H7R             4.2294265658      -16.4083670239        7.6903722373  MEMB      18              0.0000000000
      2126        18  QMPE      H7S             3.1707450655      -17.3585726426        8.7857800578  MEMB      18              0.0000000000
      2127        18  QMPE      C28             4.1496430015      -18.4887777882        7.1709900604  MEMB      18              0.0000000000
      2128        18  QMPE      H8R             4.3200182499      -19.4042292664        7.7769947630  MEMB      18              0.0000000000
      2129        18  QMPE      H8S             5.0974722440      -18.4740514775        6.5915731728  MEMB      18              0.0000000000
      2130        18  QMPE      C29             2.7910490771      -18.5357472189        6.5612656292  MEMB      18              0.0000000000
      2131        18  QMPE      H9R             1.9253021329      -18.7721112329        7.2161969995  MEMB      18              0.0000000000
      2132        18  QMPE      C217            2.6557995964      -19.3850570054        5.2919297771  MEMB      18              0.0000000000
      2133        18  QMPE      H17R            3.6314897014      -19.6496510529        4.9034611787  MEMB      18              0.0000000000
      2134        18  QMPE      H17S            1.6806293333      -19.7825560940        5.0390930711  MEMB      18              0.0000000000
      2135        18  QMPE      C210            2.5941885397      -17.8837746126        5.1911426013  MEMB      18              0.0000000000
      2136        18  QMPE      H10R            1.5889783642      -17.4108756586        5.2066481738  MEMB      18              0.0000000000
      2137        18  QMPE      C211            3.7735506728      -17.2334575394        4.3862217295  MEMB      18              0.0000000000
      2138        18  QMPE      H11R            4.3101765439      -16.6788701067        5.1854627696  MEMB      18              0.0000000000
      2139        18  QMPE      H11S            4.4698274022      -17.9541706796        3.9065424299  MEMB      18              0.0000000000
      2140        18  QMPE      C212            3.2583728881      -16.2571157841        3.3592171971  MEMB      18              0.0000000000
      2141        18  QMPE      H12R            4.0512252321      -15.6702624618        2.8480326237  MEMB      18              0.0000000000
      2142        18  QMPE      H12S            2.4920816138      -15.6617788246        3.9002275522  MEMB      18              0.0000000000
      2143        18  QMPE      C213            2.3803513146      -16.9984551484        2.1993264671  MEMB      18              0.0000000000
      2144        18  QMPE      H13R            1.6834541565      -17.6905487425        2.7186159330  MEMB      18              0.0000000000
      2145        18  QMPE      H13S            3.1841789692      -17.5524692412        1.6689967554  MEMB      18              0.0000000000
      2146        18  QMPE      C214            1.5471955963      -16.0896483915        1.2789984205  MEMB      18              0.0000000000
      2147        18  QMPE      H14R            2.2570560325      -15.8234793142        0.4668572373  MEMB      18              0.0000000000
      2148        18  QMPE      H14S            1.2718148977      -15.2209265879        1.9144580196  MEMB      18              0.0000000000
      2149        18  QMPE      C215            0.3040619034      -16.7817844903        0.6337431968  MEMB      18              0.0000000000
      2150        18  QMPE      H15R           -0.4512193182      -16.0930653903        0.1983824357  MEMB      18              0.0000000000
      2151        18  QMPE      H15S           -0.2305048658      -17.2249943278        1.5009927871  MEMB      18              0.0000000000
      2152        18  QMPE      C216            0.6005849417      -17.9460045812       -0.3465403261  MEMB      18              0.0000000000
      2153        18  QMPE      H16R           -0.2749000545      -18.5698332637       -0.6270485769  MEMB      18              0.0000000000
      2154        18  QMPE      H16S            1.3758867187      -18.6223220199        0.0727701494  MEMB      18              0.0000000000
      2155        18  QMPE      H16T            0.9349691980      -17.5009531857       -1.3080169251  MEMB      18              0.0000000000
      2156        18  QMPE      C33             9.0598701599      -14.7047729831       10.9973585812  MEMB      18              0.0000000000
      2157        18  QMPE      H3X             8.1633520312      -14.3721326022       10.4317378099  MEMB      18              0.0000000000
      2158        18  QMPE      H3Y             8.8228774356      -15.7022138912       11.4254556786  MEMB      18              0.0000000000
      2159        18  QMPE      C34            10.2611623758      -15.0560662287       10.1450236060  MEMB      18              0.0000000000
      2160        18  QMPE      H4X            11.0126118951      -15.5381092605       10.8062942776  MEMB      18              0.0000000000
      2161        18  QMPE      H4Y            10.7138109947      -14.1203099175        9.7528625728  MEMB      18              0.0000000000
      2162        18  QMPE      C35             9.8944297140      -16.0808423708        9.0427271511  MEMB      18              0.0000000000
      2163        18  QMPE      H5X             9.4911610989      -16.9518572707        9.6022165210  MEMB      18              0.0000000000
      2164        18  QMPE      H5Y            10.7291761547      -16.4549838363        8.4122210521  MEMB      18              0.0000000000
      2165        18  QMPE      C36             8.9057931797      -15.4988752004        7.9994519589  MEMB      18              0.0000000000
      2166        18  QMPE      H6X             9.2129503054      -14.4943400328        7.6376726421  MEMB      18              0.0000000000
      2167        18  QMPE      H6Y             7.9865886397      -15.4138004312        8.6176317705  MEMB      18              0.0000000000
      2168        18  QMPE      C37             8.6580178798      -16.4561330773        6.8163996369  MEMB      18              0.0000000000
      2169        18  QMPE      H7X             9.6629785454      -16.6544723579        6.3862399950  MEMB      18              0.0000000000
      2170        18  QMPE      H7Y             8.1997196669      -17.3791815904        7.2314475661  MEMB      18              0.0000000000
      2171        18  QMPE      C38             7.7870358366      -15.8365402677        5.7097658226  MEMB      18              0.0000000000
      2172        18  QMPE      H8X             7.0351805954      -15.2156886251        6.2422858337  MEMB      18              0.0000000000
      2173        18  QMPE      H8Y             8.3506072799      -15.0900044950        5.1102725787  MEMB      18              0.0000000000
      2174        18  QMPE      C39             7.1389358411      -16.7970207773        4.6915669240  MEMB      18              0.0000000000
      2175        18  QMPE      H9X             6.3319805985      -16.3271709996        4.0895821846  MEMB      18              0.0000000000
      2176        18  QMPE      H9Y             6.7792473510      -17.6708388953        5.2758499204  MEMB      18              0.0000000000
      2177        18  QMPE      C310            8.1207560077      -17.4304635882        3.7545231173  MEMB      18              0.0000000000
      2178        18  QMPE      H10X            9.0339997594      -17.6561838695        4.3455863028  MEMB      18              0.0000000000
      2179        18  QMPE      H10Y            8.5008329895      -16.6410933686        3.0713266175  MEMB      18              0.0000000000
      2180        18  QMPE      C311            7.5476251763      -18.5570899032        2.7902732473  MEMB      18              0.0000000000
      2181        18  QMPE      H11X            8.0933828295      -18.6686809624        1.8290162610  MEMB      18              0.0000000000
      2182        18  QMPE      H11Y            6.4572061149      -18.4148194553        2.6319474239  MEMB      18              0.0000000000
      2183        18  QMPE      C312            7.6001869731      -19.9590928681        3.5377280563  MEMB      18              0.0000000000
      2184        18  QMPE      H12X            6.9029711736      -19.9982714431        4.4018324384  MEMB      18              0.0000000000
      2185        18  QMPE      H12Y            8.5574885878      -20.1486038898        4.0687461283  MEMB      18              0.0000000000
      2186        18  QMPE      C313            7.2754970712      -21.1937987370        2.7796079405  MEMB      18              0.0000000000
      2187        18  QMPE      H13X            8.1066718372      -21.4395975306        2.0845887010  MEMB      18              0.0000000000
      2188        18  QMPE      H13Y            7.2406626036      -22.0549047134        3.4807525496  MEMB      18              0.0000000000
      2189        18  QMPE      C314            5.8547179542      -21.0438012796        2.0689479619  MEMB      18              0.0000000000
      2190        18  QMPE      H14X            5.9222604056      -20.3217461377        1.2272862217  MEMB      18              0.0000000000
      2191        18  QMPE      H14Y            5.1539153238      -20.5645674164        2.7855593771  MEMB      18              0.0000000000
      2192        18  QMPE      C315            5.2891561414      -22.4066487285        1.5102698889  MEMB      18              0.0000000000
      2193        18  QMPE      H15X            6.0961574665      -22.9933281641        1.0215195276  MEMB      18              0.0000000000
      2194        18  QMPE      H15Y            4.8729396027      -22.8482364573        2.4409075556  MEMB      18              0.0000000000
      2195        18  QMPE      H15Z            4.4054561911      -22.3288456275        0.8414334776  MEMB      18              0.0000000000
      2196        19  OYPE      N              -9.6879869242      -20.2728694912       19.1651731004  MEMB      19              0.0000000000
      2197        19  OYPE      HN1            -9.2298857314      -21.0265733317       19.7162391031  MEMB      19              0.0000000000
      2198        19  OYPE      HN2           -10.4472314692      -19.8117732674       19.7060410025  MEMB      19              0.0000000000
      2199        19  OYPE      HN3           -10.0968827488      -20.7234350034       18.3217307039  MEMB      19              0.0000000000
      2200        19  OYPE      C12            -8.7150421622      -19.2872571737       18.7355914666  MEMB      19              0.0000000000
      2201        19  OYPE      H12A           -9.2958882435      -18.5718217455       18.1150345089  MEMB      19              0.0000000000
      2202        19  OYPE      H12B           -7.9040135356      -19.7325159659       18.1205320649  MEMB      19              0.0000000000
      2203        19  OYPE      C11            -8.1116568407      -18.5202362900       19.9300143674  MEMB      19              0.0000000000
      2204        19  OYPE      H11A           -7.6571959009      -19.2104217456       20.6725978945  MEMB      19              0.0000000000
      2205        19  OYPE      H11B           -8.9811279439      -18.1417611790       20.5088904940  MEMB      19              0.0000000000
      2206        19  OYPE      P              -5.9019772802      -17.6023548076       18.8644656054  MEMB      19              0.0000000000
      2207        19  OYPE      O13            -5.4176789034      -18.9299085561       19.2084282783  MEMB      19              0.0000000000
      2208        19  OYPE      O14            -5.0489505301      -16.4779872285       19.1713145707  MEMB      19              0.0000000000
      2209        19  OYPE      O11            -6.2370116372      -17.5403288743       17.3126286558  MEMB      19              0.0000000000
      2210        19  OYPE      O12            -7.2637384445      -17.3946375756       19.6123839511  MEMB      19              0.0000000000
      2211        19  OYPE      C1             -7.0522315124      -16.5083752364       16.7065662525  MEMB      19              0.0000000000
      2212        19  OYPE      HA             -7.1884498438      -15.7015787496       17.4581279000  MEMB      19              0.0000000000
      2213        19  OYPE      HB             -8.0811298800      -16.6863808783       16.3270888833  MEMB      19              0.0000000000
      2214        19  OYPE      C2             -6.2236271079      -15.7341063929       15.6256237628  MEMB      19              0.0000000000
      2215        19  OYPE      HS             -6.9365772897      -14.9612249055       15.2669078678  MEMB      19              0.0000000000
      2216        19  OYPE      O21            -5.7940059115      -16.5880955003       14.5382369572  MEMB      19              0.0000000000
      2217        19  OYPE      C21            -6.8411375214      -17.1848626130       13.9003689514  MEMB      19              0.0000000000
      2218        19  OYPE      O22            -8.0453114865      -16.9070813969       13.9705736638  MEMB      19              0.0000000000
      2219        19  OYPE      C22            -6.2854749756      -18.3395473557       13.1301262099  MEMB      19              0.0000000000
      2220        19  OYPE      H2R            -5.1873619536      -18.2067332247       13.0260626554  MEMB      19              0.0000000000
      2221        19  OYPE      H2S            -6.7592556413      -18.3597247674       12.1254145570  MEMB      19              0.0000000000
      2222        19  OYPE      C3             -4.9186464623      -15.0485591905       16.1518500353  MEMB      19              0.0000000000
      2223        19  OYPE      HX             -4.2219023921      -15.8554937273       16.4644604920  MEMB      19              0.0000000000
      2224        19  OYPE      HY             -4.9235320628      -14.4583761347       17.0931155986  MEMB      19              0.0000000000
      2225        19  OYPE      O31            -4.3328046819      -14.2433600540       15.0896283085  MEMB      19              0.0000000000
      2226        19  OYPE      C31            -3.4358855716      -14.7592981838       14.3338446366  MEMB      19              0.0000000000
      2227        19  OYPE      O32            -2.8853993221      -15.8820726503       14.4910946181  MEMB      19              0.0000000000
      2228        19  OYPE      C32            -3.1513447583      -13.8541623093       13.1276406078  MEMB      19              0.0000000000
      2229        19  OYPE      H2X            -4.0658144273      -13.2853978123       12.8545594240  MEMB      19              0.0000000000
      2230        19  OYPE      H2Y            -2.5542482864      -12.9824484626       13.4710235699  MEMB      19              0.0000000000
      2231        19  OYPE      C23            -6.3878210383      -19.6079417926       13.8972644231  MEMB      19              0.0000000000
      2232        19  OYPE      H3R            -7.4671149052      -19.8671808612       13.8499254008  MEMB      19              0.0000000000
      2233        19  OYPE      H3S            -6.0113589969      -19.4928810574       14.9361862648  MEMB      19              0.0000000000
      2234        19  OYPE      C24            -5.4120719322      -20.6794911973       13.2665695481  MEMB      19              0.0000000000
      2235        19  OYPE      H4R            -5.2331635447      -21.5609444920       13.9187603433  MEMB      19              0.0000000000
      2236        19  OYPE      H4S            -4.4284735080      -20.1802852337       13.1337225466  MEMB      19              0.0000000000
      2237        19  OYPE      C25            -5.9882101329      -21.2919840991       12.0039373673  MEMB      19              0.0000000000
      2238        19  OYPE      H5R            -6.2721308541      -20.4749715259       11.3066563386  MEMB      19              0.0000000000
      2239        19  OYPE      H5S            -6.9198743267      -21.8450525919       12.2497791738  MEMB      19              0.0000000000
      2240        19  OYPE      C26            -4.9938903201      -22.2931069406       11.3676798374  MEMB      19              0.0000000000
      2241        19  OYPE      H6R            -4.8263727560      -23.0843083403       12.1294271139  MEMB      19              0.0000000000
      2242        19  OYPE      H6S            -4.1125753845      -21.6786257850       11.0848050520  MEMB      19              0.0000000000
      2243        19  OYPE      C27            -5.5480731115      -22.9084455058       10.0433186316  MEMB      19              0.0000000000
      2244        19  OYPE      H7R            -6.3963904262      -23.6094915079       10.1956763173  MEMB      19              0.0000000000
      2245        19  OYPE      H7S            -4.7462983275      -23.5089955408        9.5628829629  MEMB      19              0.0000000000
      2246        19  OYPE      C28            -6.1193414349      -21.9593001620        8.9642213709  MEMB      19              0.0000000000
      2247        19  OYPE      H8R            -7.0969420544      -21.5714313602        9.3222371460  MEMB      19              0.0000000000
      2248        19  OYPE      H8S            -6.3681035558      -22.6539189607        8.1335926916  MEMB      19              0.0000000000
      2249        19  OYPE      C29            -5.1653033889      -20.8886427529        8.4868401489  MEMB      19              0.0000000000
      2250        19  OYPE      H9R            -5.3226472838      -19.8757310331        8.8859047119  MEMB      19              0.0000000000
      2251        19  OYPE      C210           -4.2657293473      -21.0388904840        7.5376788936  MEMB      19              0.0000000000
      2252        19  OYPE      H10R           -3.6443997540      -20.1773035845        7.2519911097  MEMB      19              0.0000000000
      2253        19  OYPE      C211           -3.8724495563      -22.2042350922        6.6853813918  MEMB      19              0.0000000000
      2254        19  OYPE      H11R           -4.1838263387      -23.2143155783        7.0275845186  MEMB      19              0.0000000000
      2255        19  OYPE      H11S           -2.7660970882      -22.2998395761        6.6512542266  MEMB      19              0.0000000000
      2256        19  OYPE      C212           -4.3225640673      -22.1105739456        5.1729509966  MEMB      19              0.0000000000
      2257        19  OYPE      H12R           -5.4296117898      -22.1908008378        5.1246784443  MEMB      19              0.0000000000
      2258        19  OYPE      H12S           -3.9784885905      -23.0275001804        4.6483747443  MEMB      19              0.0000000000
      2259        19  OYPE      C213           -3.9277985769      -20.8330499772        4.4982176415  MEMB      19              0.0000000000
      2260        19  OYPE      H13R           -2.8402198524      -20.7544456120        4.2853451652  MEMB      19              0.0000000000
      2261        19  OYPE      H13S           -4.0927843045      -19.8867458705        5.0564372513  MEMB      19              0.0000000000
      2262        19  OYPE      C214           -4.7908654477      -20.6369851766        3.2731605407  MEMB      19              0.0000000000
      2263        19  OYPE      H14R           -5.0080226998      -19.5797559079        3.0096645857  MEMB      19              0.0000000000
      2264        19  OYPE      H14S           -5.8310629518      -21.0136882497        3.3751652066  MEMB      19              0.0000000000
      2265        19  OYPE      C215           -4.1879778952      -21.2987137694        2.0333846727  MEMB      19              0.0000000000
      2266        19  OYPE      H15R           -3.8752723850      -22.3273377973        2.3135068852  MEMB      19              0.0000000000
      2267        19  OYPE      H15S           -3.2216024166      -20.8049089205        1.7954841234  MEMB      19              0.0000000000
      2268        19  OYPE      C216           -5.0097733872      -21.2879761638        0.7061150675  MEMB      19              0.0000000000
      2269        19  OYPE      H16R           -6.0633982625      -21.5923227194        0.8837925480  MEMB      19              0.0000000000
      2270        19  OYPE      H16S           -4.5323306707      -22.0991558911        0.1158971916  MEMB      19              0.0000000000
      2271        19  OYPE      H16T           -4.9788106145      -20.2498512878        0.3115789252  MEMB      19              0.0000000000
      2272        19  OYPE      C33            -2.4454362185      -14.5076988072       11.8654760819  MEMB      19              0.0000000000
      2273        19  OYPE      H3X            -1.8081628680      -15.3600995922       12.1842494078  MEMB      19              0.0000000000
      2274        19  OYPE      H3Y            -1.7736214768      -13.7059834819       11.4909912843  MEMB      19              0.0000000000
      2275        19  OYPE      C34            -3.3643854835      -14.8215742157       10.7642921432  MEMB      19              0.0000000000
      2276        19  OYPE      H4X            -4.1066028880      -14.0427595347       10.4870161261  MEMB      19              0.0000000000
      2277        19  OYPE      H4Y            -2.7516436967      -14.9730829125        9.8500095580  MEMB      19              0.0000000000
      2278        19  OYPE      C35            -4.0279047614      -16.2918318001       10.9358748728  MEMB      19              0.0000000000
      2279        19  OYPE      H5X            -4.9906355400      -15.9175605628       11.3450099280  MEMB      19              0.0000000000
      2280        19  OYPE      H5Y            -3.3713413162      -16.8351727308       11.6486347028  MEMB      19              0.0000000000
      2281        19  OYPE      C36            -4.3246450064      -16.9965325161        9.6154067791  MEMB      19              0.0000000000
      2282        19  OYPE      H6X            -3.4469381519      -17.4079435411        9.0725506276  MEMB      19              0.0000000000
      2283        19  OYPE      H6Y            -4.9981584990      -17.8607281342        9.7994346057  MEMB      19              0.0000000000
      2284        19  OYPE      C37            -5.0502453519      -16.0667070333        8.6436971223  MEMB      19              0.0000000000
      2285        19  OYPE      H7X            -5.8547047122      -15.4373942992        9.0808836133  MEMB      19              0.0000000000
      2286        19  OYPE      H7Y            -4.1956250451      -15.4396968674        8.3108269758  MEMB      19              0.0000000000
      2287        19  OYPE      C38            -5.5962316999      -16.7377448757        7.2998774910  MEMB      19              0.0000000000
      2288        19  OYPE      H8X            -6.2141987174      -17.6381479416        7.5041136137  MEMB      19              0.0000000000
      2289        19  OYPE      H8Y            -6.1683788762      -15.9015833434        6.8440244341  MEMB      19              0.0000000000
      2290        19  OYPE      C39            -4.4734579482      -17.0999259369        6.3463448563  MEMB      19              0.0000000000
      2291        19  OYPE      H9X            -3.8889483490      -17.9259704663        6.7776203798  MEMB      19              0.0000000000
      2292        19  OYPE      C310           -3.9652208957      -16.4321978704        5.3096878933  MEMB      19              0.0000000000
      2293        19  OYPE      H10X           -3.0801108973      -16.8633719358        4.8191066946  MEMB      19              0.0000000000
      2294        19  OYPE      C311           -4.3854208606      -15.1807308333        4.7129637945  MEMB      19              0.0000000000
      2295        19  OYPE      H11X           -4.8203922068      -14.6023747197        5.5559502018  MEMB      19              0.0000000000
      2296        19  OYPE      H11Y           -3.4467723347      -14.7097655811        4.3504020766  MEMB      19              0.0000000000
      2297        19  OYPE      C312           -5.3642318840      -15.2353717313        3.5795153235  MEMB      19              0.0000000000
      2298        19  OYPE      H12X           -5.5066517504      -14.1583108409        3.3471855796  MEMB      19              0.0000000000
      2299        19  OYPE      H12Y           -6.3825511889      -15.5726358659        3.8686519327  MEMB      19              0.0000000000
      2300        19  OYPE      C313           -4.7871612296      -16.1488703863        2.4635100528  MEMB      19              0.0000000000
      2301        19  OYPE      H13X           -3.7585646818      -15.7463908429        2.3438437816  MEMB      19              0.0000000000
      2302        19  OYPE      H13Y           -4.5727014326      -17.2120406775        2.7043355520  MEMB      19              0.0000000000
      2303        19  OYPE      C314           -5.5544877661      -16.0674511934        1.1164526910  MEMB      19              0.0000000000
      2304        19  OYPE      H14X           -5.0729279560      -16.7557461558        0.3893549229  MEMB      19              0.0000000000
      2305        19  OYPE      H14Y           -5.4065312704      -15.0265269158        0.7574179807  MEMB      19              0.0000000000
      2306        19  OYPE      C315           -7.0148725813      -16.5099593037        0.9588372250  MEMB      19              0.0000000000
      2307        19  OYPE      H15X           -7.2430669985      -16.2791161935       -0.1036882860  MEMB      19              0.0000000000
      2308        19  OYPE      H15Y           -7.5730695909      -15.7027638845        1.4795788190  MEMB      19              0.0000000000
      2309        19  OYPE      C316           -7.4600382520      -17.8953191271        1.4010816193  MEMB      19              0.0000000000
      2310        19  OYPE      H16X           -7.4011619931      -17.9957203671        2.5059685331  MEMB      19              0.0000000000
      2311        19  OYPE      H16Y           -6.9590004242      -18.7614629758        0.9183022113  MEMB      19              0.0000000000
      2312        19  OYPE      C317           -8.9147081744      -18.1877388285        0.8970328199  MEMB      19              0.0000000000
      2313        19  OYPE      H17X           -9.2864421176      -19.1129466232        1.3870588022  MEMB      19              0.0000000000
      2314        19  OYPE      H17Y           -8.8609480338      -18.2969717647       -0.2072755538  MEMB      19              0.0000000000
      2315        19  OYPE      C318           -9.8291132146      -17.0113974245        1.2274305204  MEMB      19              0.0000000000
      2316        19  OYPE      H18X           -9.6276438128      -16.0065505372        0.7984623157  MEMB      19              0.0000000000
      2317        19  OYPE      H18Y          -10.9040905124      -17.2894041391        1.1892597471  MEMB      19              0.0000000000
      2318        19  OYPE      H18Z           -9.6540982135      -16.7844274673        2.3008239571  MEMB      19              0.0000000000
      2319        20  POPE      N             -14.2526666168       10.2794047789       20.7528120697  MEMB      20              0.0000000000
      2320        20  POPE      HN1           -13.6818015598        9.5696996457       20.2507844732  MEMB      20              0.0000000000
      2321        20  POPE      HN2           -13.7670270193       10.4042543040       21.6639469523  MEMB      20              0.0000000000
      2322        20  POPE      HN3           -15.1627573090        9.8167410381       20.9509963043  MEMB      20              0.0000000000
      2323        20  POPE      C12           -14.6336654516       11.5344091880       19.9410401695  MEMB      20              0.0000000000
      2324        20  POPE      H12A          -13.6853392436       11.8833520672       19.4792641223  MEMB      20              0.0000000000
      2325        20  POPE      H12B          -14.9588010088       12.3632214383       20.6056287572  MEMB      20              0.0000000000
      2326        20  POPE      C11           -15.5312387146       11.1443355396       18.7469287174  MEMB      20              0.0000000000
      2327        20  POPE      H11A          -15.2689040687       10.2657147750       18.1196113602  MEMB      20              0.0000000000
      2328        20  POPE      H11B          -15.4585549566       11.9936589778       18.0344066670  MEMB      20              0.0000000000
      2329        20  POPE      P             -17.7733725805        9.8483842326       18.5290371375  MEMB      20              0.0000000000
      2330        20  POPE      O13           -19.2114091920       10.1488382492       18.8137363142  MEMB      20              0.0000000000
      2331        20  POPE      O14           -17.3159077981        8.5797307160       19.0997871612  MEMB      20              0.0000000000
      2332        20  POPE      O11           -17.3627435653        9.9198348087       16.9736109727  MEMB      20              0.0000000000
      2333        20  POPE      O12           -16.9248464900       11.1279328999       19.1430474561  MEMB      20              0.0000000000
      2334        20  POPE      C1            -17.6957136274       11.0793045662       16.2442656976  MEMB      20              0.0000000000
      2335        20  POPE      HA            -16.8132173591       11.4381130493       15.6726207733  MEMB      20              0.0000000000
      2336        20  POPE      HB            -17.8138979154       11.9968881026       16.8594028961  MEMB      20              0.0000000000
      2337        20  POPE      C2            -18.9542218320       10.8217042717       15.3655425851  MEMB      20              0.0000000000
      2338        20  POPE      HS            -19.8117826494       10.4600729370       15.9722824277  MEMB      20              0.0000000000
      2339        20  POPE      O21           -18.6349994574        9.8040226053       14.3631825802  MEMB      20              0.0000000000
      2340        20  POPE      C21           -19.2130214857        8.6515720435       14.6645407607  MEMB      20              0.0000000000
      2341        20  POPE      O22           -19.7558589662        8.3275985195       15.6602945650  MEMB      20              0.0000000000
      2342        20  POPE      C22           -19.0621973937        7.7612636595       13.4173604723  MEMB      20              0.0000000000
      2343        20  POPE      H2R           -18.7316314044        8.2370512554       12.4693767466  MEMB      20              0.0000000000
      2344        20  POPE      H2S           -20.0752495648        7.3217875839       13.2952668387  MEMB      20              0.0000000000
      2345        20  POPE      C3            -19.4290693515       12.0982257111       14.5744015658  MEMB      20              0.0000000000
      2346        20  POPE      HX            -19.7176148182       12.8897778277       15.2986309276  MEMB      20              0.0000000000
      2347        20  POPE      HY            -20.3629979767       11.9047512513       14.0046069915  MEMB      20              0.0000000000
      2348        20  POPE      O31           -18.3156408020       12.6114139181       13.8692918199  MEMB      20              0.0000000000
      2349        20  POPE      C31           -18.5341232895       13.4732109979       12.8645888215  MEMB      20              0.0000000000
      2350        20  POPE      O32           -19.5555949223       13.9820304571       12.5649456589  MEMB      20              0.0000000000
      2351        20  POPE      C32           -17.1917618718       13.7485309301       12.2184695463  MEMB      20              0.0000000000
      2352        20  POPE      H2X           -17.0678833645       12.9923853029       11.4139703417  MEMB      20              0.0000000000
      2353        20  POPE      H2Y           -16.3501314641       13.6692875847       12.9393714898  MEMB      20              0.0000000000
      2354        20  POPE      C23           -18.1574093399        6.5263305127       13.6327438336  MEMB      20              0.0000000000
      2355        20  POPE      H3R           -17.9694163060        5.9811747176       12.6831205082  MEMB      20              0.0000000000
      2356        20  POPE      H3S           -18.5914496107        5.7900422154       14.3425390862  MEMB      20              0.0000000000
      2357        20  POPE      C24           -16.7730345352        7.0151525415       14.0771819116  MEMB      20              0.0000000000
      2358        20  POPE      H4R           -16.1420294496        6.1300536881       14.3068623301  MEMB      20              0.0000000000
      2359        20  POPE      H4S           -17.0429075714        7.4363800439       15.0691782718  MEMB      20              0.0000000000
      2360        20  POPE      C25           -16.1260578779        8.0003851184       13.1804079693  MEMB      20              0.0000000000
      2361        20  POPE      H5R           -16.6170380273        8.9961252785       13.2223753173  MEMB      20              0.0000000000
      2362        20  POPE      H5S           -16.0586571698        7.5896802652       12.1503111360  MEMB      20              0.0000000000
      2363        20  POPE      C26           -14.7148099429        8.5221479722       13.6869998973  MEMB      20              0.0000000000
      2364        20  POPE      H6R           -14.0079015793        7.6721222923       13.7968074601  MEMB      20              0.0000000000
      2365        20  POPE      H6S           -14.8073926748        8.9893297880       14.6907379942  MEMB      20              0.0000000000
      2366        20  POPE      C27           -13.9807254662        9.4635258829       12.6770289154  MEMB      20              0.0000000000
      2367        20  POPE      H7R           -12.9305621038        9.6154806931       13.0062515199  MEMB      20              0.0000000000
      2368        20  POPE      H7S           -14.5291943583       10.4260490047       12.7610065819  MEMB      20              0.0000000000
      2369        20  POPE      C28           -13.7089917017        8.9380572781       11.2409291263  MEMB      20              0.0000000000
      2370        20  POPE      H8R           -14.6668714354        8.5984803247       10.7920695454  MEMB      20              0.0000000000
      2371        20  POPE      H8S           -13.0323334138        8.0643099680       11.3550347813  MEMB      20              0.0000000000
      2372        20  POPE      C29           -13.0841172035        9.8426523807       10.2416205039  MEMB      20              0.0000000000
      2373        20  POPE      H91           -12.0887267302        9.4612276454        9.9701193131  MEMB      20              0.0000000000
      2374        20  POPE      C210          -13.6459579311       10.9481880878        9.6649563573  MEMB      20              0.0000000000
      2375        20  POPE      H101          -13.0040203795       11.5391358712        8.9951079637  MEMB      20              0.0000000000
      2376        20  POPE      C211          -15.0002891975       11.5509773952        9.9634993671  MEMB      20              0.0000000000
      2377        20  POPE      H11R          -14.7500506358       12.5340724478       10.4165175167  MEMB      20              0.0000000000
      2378        20  POPE      H11S          -15.6261976074       10.9157188181       10.6260752307  MEMB      20              0.0000000000
      2379        20  POPE      C212          -15.8049892047       11.7360966350        8.6221210280  MEMB      20              0.0000000000
      2380        20  POPE      H12R          -15.1926638306       12.4246772877        8.0014475106  MEMB      20              0.0000000000
      2381        20  POPE      H12S          -16.7859585391       12.1918795060        8.8756603239  MEMB      20              0.0000000000
      2382        20  POPE      C213          -16.2562561623       10.5278437339        7.7447705152  MEMB      20              0.0000000000
      2383        20  POPE      H13R          -16.9268838630        9.9463306038        8.4129190572  MEMB      20              0.0000000000
      2384        20  POPE      H13S          -15.4412561509        9.9561290576        7.2515788315  MEMB      20              0.0000000000
      2385        20  POPE      C214          -17.1037016357       11.0663398579        6.5476867078  MEMB      20              0.0000000000
      2386        20  POPE      H14R          -17.9595896646       11.6858178526        6.8912324330  MEMB      20              0.0000000000
      2387        20  POPE      H14S          -17.5231650240       10.2016555878        5.9902884299  MEMB      20              0.0000000000
      2388        20  POPE      C215          -16.4309602040       11.9987116187        5.4929755869  MEMB      20              0.0000000000
      2389        20  POPE      H15R          -16.1076170437       12.9925847925        5.8697864098  MEMB      20              0.0000000000
      2390        20  POPE      H15S          -17.0839288708       12.0841599699        4.5981837172  MEMB      20              0.0000000000
      2391        20  POPE      C216          -15.1266960365       11.3373969745        4.8929847725  MEMB      20              0.0000000000
      2392        20  POPE      H16R          -15.4434595078       10.3280210223        4.5536587320  MEMB      20              0.0000000000
      2393        20  POPE      H16S          -14.3533275174       11.1130546186        5.6584201030  MEMB      20              0.0000000000
      2394        20  POPE      C217          -14.4604795777       12.0019337549        3.6312857116  MEMB      20              0.0000000000
      2395        20  POPE      H17R          -13.5375696297       11.3986914402        3.4946966805  MEMB      20              0.0000000000
      2396        20  POPE      H17S          -14.2267528799       13.0659633212        3.8493082738  MEMB      20              0.0000000000
      2397        20  POPE      C218          -15.1851563557       12.0301775776        2.2959294315  MEMB      20              0.0000000000
      2398        20  POPE      H18R          -15.2650976804       10.9564471029        2.0220069465  MEMB      20              0.0000000000
      2399        20  POPE      H18S          -14.5077167814       12.5489149393        1.5843771789  MEMB      20              0.0000000000
      2400        20  POPE      H18T          -16.1561408221       12.4951325721        2.5703871691  MEMB      20              0.0000000000
      2401        20  POPE      C33           -17.1899581698       15.1209066400       11.6115082154  MEMB      20              0.0000000000
      2402        20  POPE      H3X           -16.1406207969       15.2823881494       11.2841918373  MEMB      20              0.0000000000
      2403        20  POPE      H3Y           -17.4530731446       15.9059794800       12.3522864753  MEMB      20              0.0000000000
      2404        20  POPE      C34           -17.9025022610       15.2184583830       10.2923936634  MEMB      20              0.0000000000
      2405        20  POPE      H4X           -18.9662429353       14.9031381506       10.3502715221  MEMB      20              0.0000000000
      2406        20  POPE      H4Y           -17.4307013589       14.4719177730        9.6183002402  MEMB      20              0.0000000000
      2407        20  POPE      C35           -17.8561474672       16.5969861794        9.7364570845  MEMB      20              0.0000000000
      2408        20  POPE      H5X           -16.8151085818       16.9692113990        9.8460344582  MEMB      20              0.0000000000
      2409        20  POPE      H5Y           -18.4809230484       17.1911363351       10.4371438565  MEMB      20              0.0000000000
      2410        20  POPE      C36           -18.2595280670       16.7455985427        8.2212502417  MEMB      20              0.0000000000
      2411        20  POPE      H6X           -18.1412740205       17.8136763113        7.9392103514  MEMB      20              0.0000000000
      2412        20  POPE      H6Y           -19.3476405574       16.5302070396        8.1584918955  MEMB      20              0.0000000000
      2413        20  POPE      C37           -17.4662458674       15.8035034030        7.2447927290  MEMB      20              0.0000000000
      2414        20  POPE      H7X           -17.4973858352       14.7350850839        7.5478321209  MEMB      20              0.0000000000
      2415        20  POPE      H7Y           -16.4016865821       16.0410913028        7.0336378004  MEMB      20              0.0000000000
      2416        20  POPE      C38           -18.2725396898       15.8744920888        5.9718485630  MEMB      20              0.0000000000
      2417        20  POPE      H8X           -17.5963455449       15.5931502469        5.1364273492  MEMB      20              0.0000000000
      2418        20  POPE      H8Y           -18.7247410218       16.8686901982        5.7683663881  MEMB      20              0.0000000000
      2419        20  POPE      C39           -19.4495727618       14.8855191007        5.8862760375  MEMB      20              0.0000000000
      2420        20  POPE      H9X           -20.0886826824       15.0916592845        6.7713554851  MEMB      20              0.0000000000
      2421        20  POPE      H9Y           -18.9895306016       13.8785249752        5.9792551766  MEMB      20              0.0000000000
      2422        20  POPE      C310          -20.2480270348       14.8294775400        4.4918993595  MEMB      20              0.0000000000
      2423        20  POPE      H10X          -20.3995197436       15.8683663692        4.1284696804  MEMB      20              0.0000000000
      2424        20  POPE      H10Y          -21.2546078056       14.3856687769        4.6473007729  MEMB      20              0.0000000000
      2425        20  POPE      C311          -19.5013380077       14.0654759077        3.3521959895  MEMB      20              0.0000000000
      2426        20  POPE      H11X          -20.0077725682       13.0966576446        3.1541142396  MEMB      20              0.0000000000
      2427        20  POPE      H11Y          -18.4458480575       13.8427352544        3.6179927335  MEMB      20              0.0000000000
      2428        20  POPE      C312          -19.3730347590       14.8674120554        2.0709093960  MEMB      20              0.0000000000
      2429        20  POPE      H12X          -20.3771924192       15.1534866176        1.6912393094  MEMB      20              0.0000000000
      2430        20  POPE      H12Y          -18.9827992288       14.3021256709        1.1977029913  MEMB      20              0.0000000000
      2431        20  POPE      C313          -18.4394917899       16.1631062820        2.1168349614  MEMB      20              0.0000000000
      2432        20  POPE      H13X          -18.9110794831       16.8871522313        2.8151784912  MEMB      20              0.0000000000
      2433        20  POPE      H13Y          -18.4864092993       16.6290495627        1.1093545212  MEMB      20              0.0000000000
      2434        20  POPE      C314          -16.9601445747       15.8419373286        2.3313084339  MEMB      20              0.0000000000
      2435        20  POPE      H14X          -16.8921224008       15.1552431514        3.2020253040  MEMB      20              0.0000000000
      2436        20  POPE      H14Y          -16.4200360666       16.7704583762        2.6149503658  MEMB      20              0.0000000000
      2437        20  POPE      C315          -16.1232713204       15.4111529734        1.0915282694  MEMB      20              0.0000000000
      2438        20  POPE      H15X          -16.6066571210       14.5580985191        0.5690747585  MEMB      20              0.0000000000
      2439        20  POPE      H15Y          -15.1175025556       15.0785362981        1.4263654512  MEMB      20              0.0000000000
      2440        20  POPE      C316          -15.9378562462       16.3794873286       -0.0126931934  MEMB      20              0.0000000000
      2441        20  POPE      H16X          -15.1485552681       17.1250389802        0.2228438536  MEMB      20              0.0000000000
      2442        20  POPE      H16Y          -16.9151315788       16.7866293725       -0.3495749040  MEMB      20              0.0000000000
      2443        20  POPE      H16Z          -15.5597158539       15.7929804807       -0.8771812567  MEMB      20              0.0000000000
      2444        21  OYPE      N              -3.6428081770       16.7689787525       19.5946789511  MEMB      21              0.0000000000
      2445        21  OYPE      HN1            -2.8377393885       16.4249882976       19.0333102747  MEMB      21              0.0000000000
      2446        21  OYPE      HN2            -4.1497862814       16.0542974092       20.1548609467  MEMB      21              0.0000000000
      2447        21  OYPE      HN3            -4.3200141587       17.2747599749       18.9887272381  MEMB      21              0.0000000000
      2448        21  OYPE      C12            -2.9931964041       17.6154656686       20.6351990580  MEMB      21              0.0000000000
      2449        21  OYPE      H12A           -2.8144590042       16.9366551780       21.4963554076  MEMB      21              0.0000000000
      2450        21  OYPE      H12B           -3.6859324419       18.4023222473       21.0030231323  MEMB      21              0.0000000000
      2451        21  OYPE      C11            -1.5828304365       18.2695644232       20.2489231120  MEMB      21              0.0000000000
      2452        21  OYPE      H11A           -0.7641407449       17.5351726326       20.4062027829  MEMB      21              0.0000000000
      2453        21  OYPE      H11B           -1.4195167724       19.1427790648       20.9161155146  MEMB      21              0.0000000000
      2454        21  OYPE      P              -2.2754481604       19.9079519589       18.2821625852  MEMB      21              0.0000000000
      2455        21  OYPE      O13            -3.5529839077       20.1014241021       19.0371120089  MEMB      21              0.0000000000
      2456        21  OYPE      O14            -2.5040500109       19.6210136795       16.8266453981  MEMB      21              0.0000000000
      2457        21  OYPE      O11            -1.1900690612       20.9830541202       18.4711506465  MEMB      21              0.0000000000
      2458        21  OYPE      O12            -1.5118878340       18.7079782758       18.9041282607  MEMB      21              0.0000000000
      2459        21  OYPE      C1              0.1600817106       20.7079382281       18.3457315000  MEMB      21              0.0000000000
      2460        21  OYPE      HA              0.2239516928       19.9737033488       17.5143826711  MEMB      21              0.0000000000
      2461        21  OYPE      HB              0.6596469920       20.2849833849       19.2434312678  MEMB      21              0.0000000000
      2462        21  OYPE      C2              0.9321089263       21.9214479876       17.8724621432  MEMB      21              0.0000000000
      2463        21  OYPE      HS              1.0091968982       22.5274741535       18.8004226722  MEMB      21              0.0000000000
      2464        21  OYPE      O21             0.2327921445       22.6053796769       16.8302868948  MEMB      21              0.0000000000
      2465        21  OYPE      C21            -0.5486605953       23.6542379425       17.1960230339  MEMB      21              0.0000000000
      2466        21  OYPE      O22            -0.5939956682       24.1074484332       18.3308089574  MEMB      21              0.0000000000
      2467        21  OYPE      C22            -1.5038673822       24.0182160027       16.0459245668  MEMB      21              0.0000000000
      2468        21  OYPE      H2R            -1.1015810378       24.9495175813       15.5929748968  MEMB      21              0.0000000000
      2469        21  OYPE      H2S            -2.4645570278       24.3419838811       16.5004250339  MEMB      21              0.0000000000
      2470        21  OYPE      C3              2.3421007918       21.5695599835       17.3353523879  MEMB      21              0.0000000000
      2471        21  OYPE      HX              2.9552323494       21.2236180329       18.1948376005  MEMB      21              0.0000000000
      2472        21  OYPE      HY              2.8510548766       22.4515489772       16.8910747085  MEMB      21              0.0000000000
      2473        21  OYPE      O31             2.3395258140       20.5435923596       16.3172967998  MEMB      21              0.0000000000
      2474        21  OYPE      C31             2.2322570610       20.9177015742       15.0653875630  MEMB      21              0.0000000000
      2475        21  OYPE      O32             1.9594784371       22.0111976767       14.6157805132  MEMB      21              0.0000000000
      2476        21  OYPE      C32             2.4201660153       19.6689096677       14.2048540695  MEMB      21              0.0000000000
      2477        21  OYPE      H2X             3.4772398113       19.5509141885       13.8839286858  MEMB      21              0.0000000000
      2478        21  OYPE      H2Y             1.9400461498       18.8222882739       14.7406133154  MEMB      21              0.0000000000
      2479        21  OYPE      C23            -1.7865469196       22.9491883019       14.9294257879  MEMB      21              0.0000000000
      2480        21  OYPE      H3R            -2.3020720313       22.0527827467       15.3356423645  MEMB      21              0.0000000000
      2481        21  OYPE      H3S            -0.8915334307       22.5553846753       14.4019879358  MEMB      21              0.0000000000
      2482        21  OYPE      C24            -2.8990131530       23.3924950702       13.8605334683  MEMB      21              0.0000000000
      2483        21  OYPE      H4R            -2.5624671542       24.1628624765       13.1341786109  MEMB      21              0.0000000000
      2484        21  OYPE      H4S            -3.7482677901       23.7418685261       14.4858540835  MEMB      21              0.0000000000
      2485        21  OYPE      C25            -3.3472400444       22.1180955767       13.0335328701  MEMB      21              0.0000000000
      2486        21  OYPE      H5R            -4.0060295319       21.5308804018       13.7084372535  MEMB      21              0.0000000000
      2487        21  OYPE      H5S            -2.3890936906       21.6349498796       12.7457018873  MEMB      21              0.0000000000
      2488        21  OYPE      C26            -4.2388842938       22.4213024141       11.7963672135  MEMB      21              0.0000000000
      2489        21  OYPE      H6R            -3.5198222805       23.0939130689       11.2817162008  MEMB      21              0.0000000000
      2490        21  OYPE      H6S            -5.1470110433       22.8548143208       12.2672113782  MEMB      21              0.0000000000
      2491        21  OYPE      C27            -4.5055347589       21.0833588117       11.0924559789  MEMB      21              0.0000000000
      2492        21  OYPE      H7R            -5.3605329252       20.6620920094       11.6632738305  MEMB      21              0.0000000000
      2493        21  OYPE      H7S            -3.6005095826       20.4455092724       11.1840983416  MEMB      21              0.0000000000
      2494        21  OYPE      C28            -4.8176910998       21.1825723746        9.6155743274  MEMB      21              0.0000000000
      2495        21  OYPE      H8R            -4.8998811768       20.1158130760        9.3162580722  MEMB      21              0.0000000000
      2496        21  OYPE      H8S            -3.9122345141       21.6061685638        9.1307693598  MEMB      21              0.0000000000
      2497        21  OYPE      C29            -6.0283992274       21.8915049815        9.0748797855  MEMB      21              0.0000000000
      2498        21  OYPE      H9R            -6.9792226348       21.6729861372        9.5829982482  MEMB      21              0.0000000000
      2499        21  OYPE      C210           -6.1571236056       22.5829714295        7.9050974578  MEMB      21              0.0000000000
      2500        21  OYPE      H10R           -7.0997745207       22.9916548310        7.5121767231  MEMB      21              0.0000000000
      2501        21  OYPE      C211           -5.0343550137       22.7896396107        6.9285425998  MEMB      21              0.0000000000
      2502        21  OYPE      H11R           -4.1019929255       22.4851509304        7.4503752791  MEMB      21              0.0000000000
      2503        21  OYPE      H11S           -4.9768090912       23.8363409867        6.5605404936  MEMB      21              0.0000000000
      2504        21  OYPE      C212           -5.1995432046       22.0771111370        5.5433682343  MEMB      21              0.0000000000
      2505        21  OYPE      H12R           -6.2833814039       22.0120237463        5.3080408578  MEMB      21              0.0000000000
      2506        21  OYPE      H12S           -4.8787782086       21.0515605108        5.8256389603  MEMB      21              0.0000000000
      2507        21  OYPE      C213           -4.4014154912       22.6937775532        4.4440806151  MEMB      21              0.0000000000
      2508        21  OYPE      H13R           -3.3147751183       22.7617215651        4.6652543711  MEMB      21              0.0000000000
      2509        21  OYPE      H13S           -4.9211235199       23.5502211368        3.9637378949  MEMB      21              0.0000000000
      2510        21  OYPE      C214           -4.2759597509       21.7392227342        3.2081410155  MEMB      21              0.0000000000
      2511        21  OYPE      H14R           -3.6315729703       20.9476300243        3.6468525438  MEMB      21              0.0000000000
      2512        21  OYPE      H14S           -3.6296557574       22.2970687176        2.4972119097  MEMB      21              0.0000000000
      2513        21  OYPE      C215           -5.5479945673       21.0530383640        2.6869899901  MEMB      21              0.0000000000
      2514        21  OYPE      H15R           -6.2522012660       20.9845087269        3.5435630175  MEMB      21              0.0000000000
      2515        21  OYPE      H15S           -5.3104234978       20.0035461542        2.4104991323  MEMB      21              0.0000000000
      2516        21  OYPE      C216           -6.2419803543       21.8675427961        1.6024504932  MEMB      21              0.0000000000
      2517        21  OYPE      H16R           -7.2087887341       21.4180746442        1.2900725466  MEMB      21              0.0000000000
      2518        21  OYPE      H16S           -5.5070289874       22.0705214502        0.7943865455  MEMB      21              0.0000000000
      2519        21  OYPE      H16T           -6.4639736985       22.9259130286        1.8571906672  MEMB      21              0.0000000000
      2520        21  OYPE      C33             1.5983968366       19.8698090161       12.9426268963  MEMB      21              0.0000000000
      2521        21  OYPE      H3X             2.1079628246       20.6031238516       12.2816331166  MEMB      21              0.0000000000
      2522        21  OYPE      H3Y             0.5577764881       20.2548841397       12.9987285556  MEMB      21              0.0000000000
      2523        21  OYPE      C34             1.4633434205       18.7071806906       11.8858561258  MEMB      21              0.0000000000
      2524        21  OYPE      H4X             2.5171587662       18.4854638679       11.6126607270  MEMB      21              0.0000000000
      2525        21  OYPE      H4Y             1.0601599790       17.8320499855       12.4389476391  MEMB      21              0.0000000000
      2526        21  OYPE      C35             0.6733544772       19.0725787557       10.6023876201  MEMB      21              0.0000000000
      2527        21  OYPE      H5X             0.9983510627       18.4097252549        9.7721326522  MEMB      21              0.0000000000
      2528        21  OYPE      H5Y             1.0197421641       20.0937057022       10.3347375225  MEMB      21              0.0000000000
      2529        21  OYPE      C36            -0.8219042632       19.1866627540       10.6702476137  MEMB      21              0.0000000000
      2530        21  OYPE      H6X            -1.2631704999       18.5163499701       11.4385483381  MEMB      21              0.0000000000
      2531        21  OYPE      H6Y            -1.1148159671       20.2254046101       10.9339500738  MEMB      21              0.0000000000
      2532        21  OYPE      C37            -1.5401164109       18.7654998846        9.3124802570  MEMB      21              0.0000000000
      2533        21  OYPE      H7X            -1.5256601797       17.6704110962        9.1256843819  MEMB      21              0.0000000000
      2534        21  OYPE      H7Y            -2.6000890170       19.0744235217        9.4363560389  MEMB      21              0.0000000000
      2535        21  OYPE      C38            -0.8762541190       19.4465597920        8.0874665467  MEMB      21              0.0000000000
      2536        21  OYPE      H8X            -0.3648079535       20.4040729504        8.3239252770  MEMB      21              0.0000000000
      2537        21  OYPE      H8Y             0.0479686467       18.8531168992        7.9202587613  MEMB      21              0.0000000000
      2538        21  OYPE      C39            -1.8197249129       19.6605358188        6.9418929818  MEMB      21              0.0000000000
      2539        21  OYPE      H9X            -2.5361980089       20.4879469062        7.0516977960  MEMB      21              0.0000000000
      2540        21  OYPE      C310           -1.7951258742       18.9958982491        5.7651333618  MEMB      21              0.0000000000
      2541        21  OYPE      H10X           -2.5724036955       19.1065659801        4.9946837126  MEMB      21              0.0000000000
      2542        21  OYPE      C311           -0.8708343082       17.8778034738        5.3142802718  MEMB      21              0.0000000000
      2543        21  OYPE      H11X           -0.7387773067       17.1708482864        6.1610952593  MEMB      21              0.0000000000
      2544        21  OYPE      H11Y           -1.2355758334       17.3830524785        4.3888035738  MEMB      21              0.0000000000
      2545        21  OYPE      C312            0.5765804366       18.1702008688        4.8411807712  MEMB      21              0.0000000000
      2546        21  OYPE      H12X            0.9831152060       17.1937076787        4.5013110025  MEMB      21              0.0000000000
      2547        21  OYPE      H12Y            1.0952103934       18.3232502097        5.8117057287  MEMB      21              0.0000000000
      2548        21  OYPE      C313            0.8069784455       19.4250844497        3.9558072195  MEMB      21              0.0000000000
      2549        21  OYPE      H13X            0.3642671035       20.3728468087        4.3300722051  MEMB      21              0.0000000000
      2550        21  OYPE      H13Y            1.9102264057       19.5420196329        4.0148925308  MEMB      21              0.0000000000
      2551        21  OYPE      C314            0.4119386946       19.1910784125        2.5262623427  MEMB      21              0.0000000000
      2552        21  OYPE      H14X            0.6769722005       18.1461465760        2.2575706186  MEMB      21              0.0000000000
      2553        21  OYPE      H14Y            1.2397675052       19.7750993640        2.0702579403  MEMB      21              0.0000000000
      2554        21  OYPE      C315           -0.9980105962       19.4451217742        2.0409567370  MEMB      21              0.0000000000
      2555        21  OYPE      H15X           -1.1414307281       20.5297002200        1.8474583606  MEMB      21              0.0000000000
      2556        21  OYPE      H15Y           -1.5296610258       19.1457971995        2.9694354745  MEMB      21              0.0000000000
      2557        21  OYPE      C316           -1.3981855057       18.5396061778        0.8643265473  MEMB      21              0.0000000000
      2558        21  OYPE      H16X           -2.5060710571       18.5804821622        0.7919426170  MEMB      21              0.0000000000
      2559        21  OYPE      H16Y           -1.2238817744       17.4736055236        1.1242904878  MEMB      21              0.0000000000
      2560        21  OYPE      C317           -0.8907645884       19.0718634500       -0.4990893095  MEMB      21              0.0000000000
      2561        21  OYPE      H17X            0.2161506393       19.0061300932       -0.5679269850  MEMB      21              0.0000000000
      2562        21  OYPE      H17Y           -1.0878529454       20.1596173077       -0.6098529183  MEMB      21              0.0000000000
      2563        21  OYPE      C318           -1.5632890328       18.4131454562       -1.7673452034  MEMB      21              0.0000000000
      2564        21  OYPE      H18X           -1.4556708007       17.3137637549       -1.6486055339  MEMB      21              0.0000000000
      2565        21  OYPE      H18Y           -2.6579352199       18.6012595492       -1.7411943956  MEMB      21              0.0000000000
      2566        21  OYPE      H18Z           -0.9819736923       18.6974378916       -2.6704350723  MEMB      21              0.0000000000
      2567        22  PMPE      N              11.5452848681      -12.6299931416       19.4870601266  MEMB      22              0.0000000000
      2568        22  PMPE      HN1            11.2866266827      -13.0112422805       20.4194468730  MEMB      22              0.0000000000
      2569        22  PMPE      HN2            12.5724790270      -12.4713928192       19.5233669744  MEMB      22              0.0000000000
      2570        22  PMPE      HN3            11.0846873090      -11.7437047381       19.1973315189  MEMB      22              0.0000000000
      2571        22  PMPE      C12            11.4182427993      -13.5577934610       18.4208799960  MEMB      22              0.0000000000
      2572        22  PMPE      H12A           11.5285545968      -13.0496636246       17.4390671556  MEMB      22              0.0000000000
      2573        22  PMPE      H12B           10.3906197261      -13.9786402148       18.3862442729  MEMB      22              0.0000000000
      2574        22  PMPE      C11            12.5074515757      -14.6169530585       18.5087871841  MEMB      22              0.0000000000
      2575        22  PMPE      H11A           12.3152235128      -15.3966468368       17.7410325583  MEMB      22              0.0000000000
      2576        22  PMPE      H11B           12.6050919698      -15.1767635833       19.4634596782  MEMB      22              0.0000000000
      2577        22  PMPE      P              14.8854368690      -13.7681491905       19.2557508113  MEMB      22              0.0000000000
      2578        22  PMPE      O13            14.7683233841      -14.7392103623       20.3741563472  MEMB      22              0.0000000000
      2579        22  PMPE      O14            15.0475187949      -12.3035057097       19.4767411529  MEMB      22              0.0000000000
      2580        22  PMPE      O11            16.0991490958      -14.2811659522       18.2815996387  MEMB      22              0.0000000000
      2581        22  PMPE      O12            13.7130668126      -13.9856118037       18.1950247467  MEMB      22              0.0000000000
      2582        22  PMPE      C1             16.0664996297      -15.5381663938       17.6787350284  MEMB      22              0.0000000000
      2583        22  PMPE      HA             15.0240908904      -15.8392776759       17.4399103755  MEMB      22              0.0000000000
      2584        22  PMPE      HB             16.3803837350      -16.3765366720       18.3367113928  MEMB      22              0.0000000000
      2585        22  PMPE      C2             16.8932440780      -15.4922662846       16.3886684564  MEMB      22              0.0000000000
      2586        22  PMPE      HS             17.9360311435      -15.2635288086       16.6962316706  MEMB      22              0.0000000000
      2587        22  PMPE      O21            16.4123863597      -14.3778778681       15.6091857573  MEMB      22              0.0000000000
      2588        22  PMPE      C21            16.9052460291      -14.0601170934       14.4088243261  MEMB      22              0.0000000000
      2589        22  PMPE      O22            17.7848833966      -14.6773385359       13.8270119793  MEMB      22              0.0000000000
      2590        22  PMPE      C22            16.2209567314      -12.9267675091       13.7043894023  MEMB      22              0.0000000000
      2591        22  PMPE      H2R            15.9899779533      -12.1052295607       14.4157580724  MEMB      22              0.0000000000
      2592        22  PMPE      H2S            15.2621600556      -13.3108879737       13.2951444061  MEMB      22              0.0000000000
      2593        22  PMPE      C3             16.7981338285      -16.8394065878       15.6026506136  MEMB      22              0.0000000000
      2594        22  PMPE      HX             16.9765728134      -17.6930099979       16.2910120199  MEMB      22              0.0000000000
      2595        22  PMPE      HY             17.6373924702      -16.9048256607       14.8776086310  MEMB      22              0.0000000000
      2596        22  PMPE      O31            15.5668304709      -16.9194587883       14.8208654472  MEMB      22              0.0000000000
      2597        22  PMPE      C31            14.5929705890      -17.7237682084       15.2556731603  MEMB      22              0.0000000000
      2598        22  PMPE      O32            14.7077907184      -18.6670167593       16.0006895069  MEMB      22              0.0000000000
      2599        22  PMPE      C32            13.3298977872      -17.3507611726       14.5536766334  MEMB      22              0.0000000000
      2600        22  PMPE      H2X            13.1274592564      -16.2751927786       14.7447069990  MEMB      22              0.0000000000
      2601        22  PMPE      H2Y            12.4921678894      -17.9645072494       14.9484484781  MEMB      22              0.0000000000
      2602        22  PMPE      C23            17.1321905892      -12.3732632412       12.6170282320  MEMB      22              0.0000000000
      2603        22  PMPE      H3R            17.2506434809      -13.1571731128       11.8387126634  MEMB      22              0.0000000000
      2604        22  PMPE      H3S            18.1558672451      -12.1270061771       12.9716612344  MEMB      22              0.0000000000
      2605        22  PMPE      C24            16.6219330730      -11.2130124373       11.7804385226  MEMB      22              0.0000000000
      2606        22  PMPE      H4R            16.4458748608      -10.3362490916       12.4396888389  MEMB      22              0.0000000000
      2607        22  PMPE      H4S            15.5868892750      -11.4290668290       11.4393726781  MEMB      22              0.0000000000
      2608        22  PMPE      C25            17.5776349819      -11.0324060932       10.5469796288  MEMB      22              0.0000000000
      2609        22  PMPE      H5R            18.5819978078      -10.6798417821       10.8652171440  MEMB      22              0.0000000000
      2610        22  PMPE      H5S            17.1238216983      -10.2280231169        9.9294505554  MEMB      22              0.0000000000
      2611        22  PMPE      C26            17.7843486912      -12.2184256668        9.6596416810  MEMB      22              0.0000000000
      2612        22  PMPE      H6R            16.8101728202      -12.6070006319        9.2931561276  MEMB      22              0.0000000000
      2613        22  PMPE      H6S            18.3426877479      -13.0122285273       10.2004335276  MEMB      22              0.0000000000
      2614        22  PMPE      C27            18.6147796041      -11.7990150711        8.3981568503  MEMB      22              0.0000000000
      2615        22  PMPE      H7R            19.5365145470      -11.2753517766        8.7305757676  MEMB      22              0.0000000000
      2616        22  PMPE      H7S            18.0689122180      -10.9865710881        7.8725292078  MEMB      22              0.0000000000
      2617        22  PMPE      C28            18.7991975206      -12.9964812866        7.4433614746  MEMB      22              0.0000000000
      2618        22  PMPE      H8R            17.8059685860      -13.3594163137        7.1026336596  MEMB      22              0.0000000000
      2619        22  PMPE      H8S            19.1688870205      -13.7985111781        8.1174519827  MEMB      22              0.0000000000
      2620        22  PMPE      C29            19.9051077646      -12.6855927595        6.4862009319  MEMB      22              0.0000000000
      2621        22  PMPE      H9R            20.9460524169      -12.5041002532        6.8294436011  MEMB      22              0.0000000000
      2622        22  PMPE      C217           19.4982357520      -12.0174479327        5.1264030972  MEMB      22              0.0000000000
      2623        22  PMPE      H17R           20.2849562425      -11.3145827778        4.8815759270  MEMB      22              0.0000000000
      2624        22  PMPE      H17S           18.4379519700      -11.8328356959        5.2472570946  MEMB      22              0.0000000000
      2625        22  PMPE      C210           19.9626668383      -13.4771302889        5.1777981430  MEMB      22              0.0000000000
      2626        22  PMPE      H10R           20.9116069893      -13.5873097669        4.6106164045  MEMB      22              0.0000000000
      2627        22  PMPE      C211           18.8738396711      -14.4856702760        4.8019382484  MEMB      22              0.0000000000
      2628        22  PMPE      H11R           17.8648022415      -14.1069404514        5.0716196483  MEMB      22              0.0000000000
      2629        22  PMPE      H11S           19.0962272475      -15.4512451255        5.3044619015  MEMB      22              0.0000000000
      2630        22  PMPE      C212           18.8089835499      -14.9205542702        3.3167068144  MEMB      22              0.0000000000
      2631        22  PMPE      H12R           19.7015325750      -15.5551252575        3.1296334533  MEMB      22              0.0000000000
      2632        22  PMPE      H12S           18.7834518876      -13.9817953425        2.7230749655  MEMB      22              0.0000000000
      2633        22  PMPE      C213           17.4203531552      -15.6541252467        2.9506114568  MEMB      22              0.0000000000
      2634        22  PMPE      H13R           16.5849905881      -14.9538995432        3.1654957189  MEMB      22              0.0000000000
      2635        22  PMPE      H13S           17.3003763806      -16.5258280780        3.6288902365  MEMB      22              0.0000000000
      2636        22  PMPE      C214           17.4402867298      -16.3420940617        1.5647607677  MEMB      22              0.0000000000
      2637        22  PMPE      H14R           16.3743916123      -16.6227232539        1.4253492029  MEMB      22              0.0000000000
      2638        22  PMPE      H14S           18.1373938732      -17.1959852084        1.7034427998  MEMB      22              0.0000000000
      2639        22  PMPE      C215           17.9562388875      -15.5818027777        0.3413563189  MEMB      22              0.0000000000
      2640        22  PMPE      H15R           18.1532499825      -16.3868738750       -0.3984872185  MEMB      22              0.0000000000
      2641        22  PMPE      H15S           18.9065002791      -15.0595602227        0.5834036886  MEMB      22              0.0000000000
      2642        22  PMPE      C216           16.9599015793      -14.6080329670       -0.2904979356  MEMB      22              0.0000000000
      2643        22  PMPE      H16R           17.3838671980      -14.3055890575       -1.2718747377  MEMB      22              0.0000000000
      2644        22  PMPE      H16S           16.0360029947      -15.1105476237       -0.6485645467  MEMB      22              0.0000000000
      2645        22  PMPE      H16T           16.7755686178      -13.6955151307        0.3158466956  MEMB      22              0.0000000000
      2646        22  PMPE      C33            13.5662766930      -17.4814836196       12.9856048249  MEMB      22              0.0000000000
      2647        22  PMPE      H3X            14.1073153915      -18.4516556121       12.9665148864  MEMB      22              0.0000000000
      2648        22  PMPE      H3Y            14.3427141941      -16.7850785188       12.6028705224  MEMB      22              0.0000000000
      2649        22  PMPE      C34            12.2411389886      -17.6038164754       12.1677910650  MEMB      22              0.0000000000
      2650        22  PMPE      H4X            11.5608904312      -18.3003093014       12.7030297958  MEMB      22              0.0000000000
      2651        22  PMPE      H4Y            12.4544543177      -18.0677810173       11.1811021551  MEMB      22              0.0000000000
      2652        22  PMPE      C35            11.6057795157      -16.2370431280       11.8745767129  MEMB      22              0.0000000000
      2653        22  PMPE      H5X            11.4278025248      -15.7229302736       12.8432528386  MEMB      22              0.0000000000
      2654        22  PMPE      H5Y            10.6482599340      -16.2976934884       11.3143990993  MEMB      22              0.0000000000
      2655        22  PMPE      C36            12.5369113044      -15.4167417169       10.9836504124  MEMB      22              0.0000000000
      2656        22  PMPE      H6X            12.8375754122      -16.1188272018       10.1768054994  MEMB      22              0.0000000000
      2657        22  PMPE      H6Y            13.3596567479      -15.0714998432       11.6456315655  MEMB      22              0.0000000000
      2658        22  PMPE      C37            11.8214515553      -14.1987171215       10.3592859087  MEMB      22              0.0000000000
      2659        22  PMPE      H7X            11.6432107897      -13.4720070921       11.1805313109  MEMB      22              0.0000000000
      2660        22  PMPE      H7Y            10.8745009102      -14.5760174939        9.9174150188  MEMB      22              0.0000000000
      2661        22  PMPE      C38            12.7099546037      -13.5741358070        9.2556003944  MEMB      22              0.0000000000
      2662        22  PMPE      H8X            12.8915434251      -14.2246131206        8.3734289248  MEMB      22              0.0000000000
      2663        22  PMPE      H8Y            13.7224029960      -13.4216215181        9.6868876772  MEMB      22              0.0000000000
      2664        22  PMPE      C39            12.1378144011      -12.2560977994        8.7511622340  MEMB      22              0.0000000000
      2665        22  PMPE      H9X            12.2870668195      -11.5212954554        9.5709858509  MEMB      22              0.0000000000
      2666        22  PMPE      H9Y            11.0739831781      -12.3202729032        8.4373693811  MEMB      22              0.0000000000
      2667        22  PMPE      C310           12.8794753307      -11.6433212736        7.4945418712  MEMB      22              0.0000000000
      2668        22  PMPE      H10X           12.3164794389      -10.7384827439        7.1804981202  MEMB      22              0.0000000000
      2669        22  PMPE      H10Y           12.7921795925      -12.3962289609        6.6822426268  MEMB      22              0.0000000000
      2670        22  PMPE      C311           14.3099247990      -11.3487662234        7.7865796146  MEMB      22              0.0000000000
      2671        22  PMPE      H11X           14.7196921686      -12.2253544001        8.3324776418  MEMB      22              0.0000000000
      2672        22  PMPE      H11Y           14.1443551657      -10.4520575450        8.4212618548  MEMB      22              0.0000000000
      2673        22  PMPE      C312           15.1846865567      -11.0964498255        6.5177019537  MEMB      22              0.0000000000
      2674        22  PMPE      H12X           15.3553009070      -12.0932592677        6.0577204470  MEMB      22              0.0000000000
      2675        22  PMPE      H12Y           16.1217242179      -10.6444428339        6.9075365444  MEMB      22              0.0000000000
      2676        22  PMPE      C313           14.6796675126      -10.0245874300        5.5320016099  MEMB      22              0.0000000000
      2677        22  PMPE      H13X           14.3201562626       -9.1616473540        6.1323405713  MEMB      22              0.0000000000
      2678        22  PMPE      H13Y           13.8675555473      -10.4267766648        4.8893201215  MEMB      22              0.0000000000
      2679        22  PMPE      C314           15.8707271199       -9.6030518090        4.6221099737  MEMB      22              0.0000000000
      2680        22  PMPE      H14X           16.8487131921       -9.6313313346        5.1484795376  MEMB      22              0.0000000000
      2681        22  PMPE      H14Y           15.6378902150       -8.6086166248        4.1848385935  MEMB      22              0.0000000000
      2682        22  PMPE      C315           15.9606733837      -10.6274969946        3.4754455603  MEMB      22              0.0000000000
      2683        22  PMPE      H15X           14.9299851791      -10.6289855862        3.0607161947  MEMB      22              0.0000000000
      2684        22  PMPE      H15Y           16.2120537792      -11.6875793012        3.6930567443  MEMB      22              0.0000000000
      2685        22  PMPE      C316           16.9524082966      -10.2624686970        2.3629803228  MEMB      22              0.0000000000
      2686        22  PMPE      H16X           16.6969749474       -9.3206871191        1.8318270298  MEMB      22              0.0000000000
      2687        22  PMPE      H16Y           17.0151525165      -11.0847687634        1.6185295812  MEMB      22              0.0000000000
      2688        22  PMPE      H16Z           17.9784756806      -10.0518367801        2.7333050810  MEMB      22              0.0000000000
      2689        23  PYPG      C13           -13.4046221237      -13.1415050492       20.5154654688  MEMB      23              0.0000000000
      2690        23  PYPG      H13A          -13.0012556926      -14.0846778394       20.9421290179  MEMB      23              0.0000000000
      2691        23  PYPG      H13B          -12.8171173761      -12.9060060607       19.6023940036  MEMB      23              0.0000000000
      2692        23  PYPG      OC3           -13.1468086441      -12.0820666401       21.3848349175  MEMB      23              0.0000000000
      2693        23  PYPG      HO3           -13.6152902886      -11.3474916929       20.9816914197  MEMB      23              0.0000000000
      2694        23  PYPG      C12           -14.8949770491      -13.1455007434       20.1084580691  MEMB      23              0.0000000000
      2695        23  PYPG      H12A          -15.0335735450      -12.3393026672       19.3510845066  MEMB      23              0.0000000000
      2696        23  PYPG      OC2           -15.7139993530      -12.8356408453       21.2368330951  MEMB      23              0.0000000000
      2697        23  PYPG      HO2           -16.6227301481      -12.9988137735       20.9017215055  MEMB      23              0.0000000000
      2698        23  PYPG      C11           -15.2366870213      -14.5129419584       19.4861272867  MEMB      23              0.0000000000
      2699        23  PYPG      H11A          -16.3334613694      -14.6838442147       19.5330262030  MEMB      23              0.0000000000
      2700        23  PYPG      H11B          -14.5502086172      -15.1712944472       20.0602706111  MEMB      23              0.0000000000
      2701        23  PYPG      P             -14.7869606224      -16.0288384677       17.3792307774  MEMB      23              0.0000000000
      2702        23  PYPG      O13           -14.7814297717      -15.8443802658       15.9401359664  MEMB      23              0.0000000000
      2703        23  PYPG      O14           -15.8249745219      -16.8942145581       17.9366317008  MEMB      23              0.0000000000
      2704        23  PYPG      O11           -13.3377951510      -16.6206015739       17.8241773519  MEMB      23              0.0000000000
      2705        23  PYPG      O12           -14.8739007810      -14.6090969078       18.1881053616  MEMB      23              0.0000000000
      2706        23  PYPG      C1            -12.2310377427      -15.8485005784       17.9246730391  MEMB      23              0.0000000000
      2707        23  PYPG      HA            -11.5873418397      -16.3041203840       18.7072248492  MEMB      23              0.0000000000
      2708        23  PYPG      HB            -12.4082854368      -14.8230569885       18.3137356125  MEMB      23              0.0000000000
      2709        23  PYPG      C2            -11.3515349981      -15.8012498707       16.5191334023  MEMB      23              0.0000000000
      2710        23  PYPG      HS            -10.4547372761      -15.2976735047       16.9392358605  MEMB      23              0.0000000000
      2711        23  PYPG      O21           -12.0285229166      -15.1085430239       15.4377717534  MEMB      23              0.0000000000
      2712        23  PYPG      C21           -11.5155507516      -14.8467356328       14.2862396121  MEMB      23              0.0000000000
      2713        23  PYPG      O22           -10.3556053020      -14.9503452697       13.9899697072  MEMB      23              0.0000000000
      2714        23  PYPG      C22           -12.6772528121      -14.3268800515       13.4011018487  MEMB      23              0.0000000000
      2715        23  PYPG      H2R           -13.0863420639      -13.4207806299       13.8970360544  MEMB      23              0.0000000000
      2716        23  PYPG      H2S           -13.5184674644      -15.0522566525       13.3785705271  MEMB      23              0.0000000000
      2717        23  PYPG      C3            -11.0350320061      -17.2500790394       16.0992110875  MEMB      23              0.0000000000
      2718        23  PYPG      HX            -10.6298319355      -17.9658070697       16.8461159697  MEMB      23              0.0000000000
      2719        23  PYPG      HY            -10.1287758351      -17.2315128528       15.4568125359  MEMB      23              0.0000000000
      2720        23  PYPG      O31           -12.1822346289      -17.7750059674       15.5299780696  MEMB      23              0.0000000000
      2721        23  PYPG      C31           -12.1403874743      -18.1254399167       14.1610211387  MEMB      23              0.0000000000
      2722        23  PYPG      O32           -11.1600174034      -17.9703655505       13.4731411846  MEMB      23              0.0000000000
      2723        23  PYPG      C32           -13.4901366922      -18.8306878923       13.7228670382  MEMB      23              0.0000000000
      2724        23  PYPG      H2X           -13.2614011476      -19.9096575128       13.8563786503  MEMB      23              0.0000000000
      2725        23  PYPG      H2Y           -14.2420676138      -18.5364527185       14.4859833906  MEMB      23              0.0000000000
      2726        23  PYPG      C23           -12.0675668852      -14.1062131824       11.9428950027  MEMB      23              0.0000000000
      2727        23  PYPG      H3R           -11.9674952392      -15.0893292806       11.4351650289  MEMB      23              0.0000000000
      2728        23  PYPG      H3S           -11.1496442360      -13.4813273465       11.9783481550  MEMB      23              0.0000000000
      2729        23  PYPG      C24           -13.1064458552      -13.3405293175       11.1340840435  MEMB      23              0.0000000000
      2730        23  PYPG      H4R           -12.6008395589      -12.8686297338       10.2646047323  MEMB      23              0.0000000000
      2731        23  PYPG      H4S           -13.3536801668      -12.4950505376       11.8111082007  MEMB      23              0.0000000000
      2732        23  PYPG      C25           -14.2392844066      -14.1633346059       10.6025479933  MEMB      23              0.0000000000
      2733        23  PYPG      H5R           -14.6789958676      -14.7451980886       11.4406471371  MEMB      23              0.0000000000
      2734        23  PYPG      H5S           -13.7679258035      -14.9108576482        9.9292348533  MEMB      23              0.0000000000
      2735        23  PYPG      C26           -15.2208764594      -13.3626443366        9.7667933956  MEMB      23              0.0000000000
      2736        23  PYPG      H6R           -14.5949905227      -12.7663397712        9.0689334588  MEMB      23              0.0000000000
      2737        23  PYPG      H6S           -15.8204224245      -12.5482696272       10.2268579771  MEMB      23              0.0000000000
      2738        23  PYPG      C27           -16.1205745977      -14.2573124354        8.8309593235  MEMB      23              0.0000000000
      2739        23  PYPG      H7R           -17.0280227402      -13.6887995791        8.5348986167  MEMB      23              0.0000000000
      2740        23  PYPG      H7S           -16.5082897841      -15.0893442900        9.4568355412  MEMB      23              0.0000000000
      2741        23  PYPG      C28           -15.3918263100      -14.8667439149        7.6101903893  MEMB      23              0.0000000000
      2742        23  PYPG      H8R           -16.1805892998      -15.3925887906        7.0308277802  MEMB      23              0.0000000000
      2743        23  PYPG      H8S           -14.6352022758      -15.4433519799        8.1840935455  MEMB      23              0.0000000000
      2744        23  PYPG      C29           -14.5817933820      -13.9180382336        6.7880354670  MEMB      23              0.0000000000
      2745        23  PYPG      H9R           -13.5330897929      -14.2442814335        6.7265034868  MEMB      23              0.0000000000
      2746        23  PYPG      C210          -14.9336954718      -12.7682779858        6.1729394022  MEMB      23              0.0000000000
      2747        23  PYPG      H10R          -14.1086414351      -12.3593608569        5.5712148872  MEMB      23              0.0000000000
      2748        23  PYPG      C211          -16.3264548883      -12.1181154983        6.0505720799  MEMB      23              0.0000000000
      2749        23  PYPG      H11R          -16.1629113783      -11.2189774006        6.6823350311  MEMB      23              0.0000000000
      2750        23  PYPG      H11S          -17.1058561185      -12.7468211055        6.5318041963  MEMB      23              0.0000000000
      2751        23  PYPG      C212          -16.8822897129      -11.7269757957        4.6856353353  MEMB      23              0.0000000000
      2752        23  PYPG      H12R          -17.6963647660      -10.9790583057        4.7961895485  MEMB      23              0.0000000000
      2753        23  PYPG      H12S          -17.2007117513      -12.6426855375        4.1430458535  MEMB      23              0.0000000000
      2754        23  PYPG      C213          -15.7814713945      -10.9152171305        3.8425994232  MEMB      23              0.0000000000
      2755        23  PYPG      H13R          -14.9439783441      -11.6449528678        3.8223013290  MEMB      23              0.0000000000
      2756        23  PYPG      H13S          -15.5003009101       -9.9921770086        4.3932916228  MEMB      23              0.0000000000
      2757        23  PYPG      C214          -16.0805910803      -10.4826132967        2.4291505963  MEMB      23              0.0000000000
      2758        23  PYPG      H14R          -17.0614785465       -9.9704799147        2.3296516638  MEMB      23              0.0000000000
      2759        23  PYPG      H14S          -15.3000858060       -9.7318759763        2.1811064646  MEMB      23              0.0000000000
      2760        23  PYPG      C215          -16.1063808934      -11.6230936267        1.4574044204  MEMB      23              0.0000000000
      2761        23  PYPG      H15R          -17.0358278374      -12.1335085990        1.7889545573  MEMB      23              0.0000000000
      2762        23  PYPG      H15S          -15.1921877497      -12.2535421257        1.4241382251  MEMB      23              0.0000000000
      2763        23  PYPG      C216          -16.2257317598      -11.2046102171       -0.0335873758  MEMB      23              0.0000000000
      2764        23  PYPG      H16R          -15.2356894334      -10.9411337030       -0.4633757786  MEMB      23              0.0000000000
      2765        23  PYPG      H16S          -16.9225562544      -10.3878454430       -0.3193359099  MEMB      23              0.0000000000
      2766        23  PYPG      H16T          -16.5011082747      -12.0875912832       -0.6490818812  MEMB      23              0.0000000000
      2767        23  PYPG      C33           -13.8268445555      -18.3851826294       12.2939780320  MEMB      23              0.0000000000
      2768        23  PYPG      H3X           -12.9231570738      -18.6927652795       11.7255919149  MEMB      23              0.0000000000
      2769        23  PYPG      H3Y           -13.8442375086      -17.2760091153       12.2327209556  MEMB      23              0.0000000000
      2770        23  PYPG      C34           -15.1111037508      -18.8572514429       11.7255138125  MEMB      23              0.0000000000
      2771        23  PYPG      H4X           -15.8009673968      -18.3672292981       12.4454356568  MEMB      23              0.0000000000
      2772        23  PYPG      H4Y           -15.3066429272      -19.9431757399       11.8553348417  MEMB      23              0.0000000000
      2773        23  PYPG      C35           -15.3168997964      -18.5238424192       10.2497529877  MEMB      23              0.0000000000
      2774        23  PYPG      H5X           -14.3933433775      -18.8570025982        9.7297822685  MEMB      23              0.0000000000
      2775        23  PYPG      H5Y           -15.4780883601      -17.4246589353       10.2381575077  MEMB      23              0.0000000000
      2776        23  PYPG      C36           -16.4821430996      -19.3026454699        9.6800067492  MEMB      23              0.0000000000
      2777        23  PYPG      H6X           -17.2439758538      -19.4391623440       10.4770607035  MEMB      23              0.0000000000
      2778        23  PYPG      H6Y           -16.1696831690      -20.3455528660        9.4585705342  MEMB      23              0.0000000000
      2779        23  PYPG      C37           -17.1368865007      -18.7845324006        8.4286110098  MEMB      23              0.0000000000
      2780        23  PYPG      H7X           -17.9937038925      -19.4524033973        8.1959460345  MEMB      23              0.0000000000
      2781        23  PYPG      H7Y           -17.6042429159      -17.7858397397        8.5646698045  MEMB      23              0.0000000000
      2782        23  PYPG      C38           -16.1909662307      -18.7622817174        7.1495759189  MEMB      23              0.0000000000
      2783        23  PYPG      H8X           -15.8285579668      -19.7824054033        6.8999185960  MEMB      23              0.0000000000
      2784        23  PYPG      H8Y           -15.4098135318      -18.0211083300        7.4230405248  MEMB      23              0.0000000000
      2785        23  PYPG      C39           -16.9369487895      -18.1154151198        5.9365074638  MEMB      23              0.0000000000
      2786        23  PYPG      H9X           -17.3030991409      -17.0841760070        6.1283426291  MEMB      23              0.0000000000
      2787        23  PYPG      H9Y           -17.7857880413      -18.7178401357        5.5480781665  MEMB      23              0.0000000000
      2788        23  PYPG      C310          -15.9601694737      -18.0201139612        4.7644729192  MEMB      23              0.0000000000
      2789        23  PYPG      H10X          -15.7225907988      -19.0123177464        4.3246896282  MEMB      23              0.0000000000
      2790        23  PYPG      H10Y          -15.0879749222      -17.4684591183        5.1759032191  MEMB      23              0.0000000000
      2791        23  PYPG      C311          -16.6843431254      -17.2138350136        3.6430313749  MEMB      23              0.0000000000
      2792        23  PYPG      H11X          -16.9817112600      -16.2522768089        4.1134559112  MEMB      23              0.0000000000
      2793        23  PYPG      H11Y          -17.5444623312      -17.8296987120        3.3035794753  MEMB      23              0.0000000000
      2794        23  PYPG      C312          -15.8602589614      -16.8258649712        2.4051630994  MEMB      23              0.0000000000
      2795        23  PYPG      H12X          -15.2894869342      -15.9035889842        2.6458848988  MEMB      23              0.0000000000
      2796        23  PYPG      H12Y          -15.3284690565      -17.7787623110        2.1965790156  MEMB      23              0.0000000000
      2797        23  PYPG      C313          -16.7063806360      -16.6991994899        1.1561161269  MEMB      23              0.0000000000
      2798        23  PYPG      H13X          -16.5991330746      -17.5743378080        0.4801344671  MEMB      23              0.0000000000
      2799        23  PYPG      H13Y          -17.7894270193      -16.5930674546        1.3798741041  MEMB      23              0.0000000000
      2800        23  PYPG      C314          -16.1936944684      -15.4960669059        0.3185338548  MEMB      23              0.0000000000
      2801        23  PYPG      H14X          -16.0338495231      -14.7213452137        1.0986460823  MEMB      23              0.0000000000
      2802        23  PYPG      H14Y          -15.1523899505      -15.6713220194       -0.0268527238  MEMB      23              0.0000000000
      2803        23  PYPG      C315          -17.0761257071      -15.0090630999       -0.8125595832  MEMB      23              0.0000000000
      2804        23  PYPG      H15X          -17.9739195798      -14.5479868092       -0.3481296878  MEMB      23              0.0000000000
      2805        23  PYPG      H15Y          -16.4985509119      -14.2170677580       -1.3355058668  MEMB      23              0.0000000000
      2806        23  PYPG      C316          -17.5403495287      -15.9458369019       -1.9177439248  MEMB      23              0.0000000000
      2807        23  PYPG      H16X          -17.9177720717      -15.4006505728       -2.8091735074  MEMB      23              0.0000000000
      2808        23  PYPG      H16Y          -18.2796718759      -16.6996898507       -1.5721590642  MEMB      23              0.0000000000
      2809        23  PYPG      H16Z          -16.6532224588      -16.5018523261       -2.2894621934  MEMB      23              0.0000000000
      2810        24  PMPE      N              20.0264488939       -1.4669506983       21.5429371721  MEMB      24              0.0000000000
      2811        24  PMPE      HN1            20.5027690767       -1.0223880597       22.3535437318  MEMB      24              0.0000000000
      2812        24  PMPE      HN2            19.2256500534       -1.9858736567       21.9565074363  MEMB      24              0.0000000000
      2813        24  PMPE      HN3            20.6292829903       -2.0222865833       20.9027864550  MEMB      24              0.0000000000
      2814        24  PMPE      C12            19.5467667737       -0.2607649812       20.7238295806  MEMB      24              0.0000000000
      2815        24  PMPE      H12A           20.3807211045        0.4732690029       20.7178800510  MEMB      24              0.0000000000
      2816        24  PMPE      H12B           18.6926561962        0.2188504984       21.2480291629  MEMB      24              0.0000000000
      2817        24  PMPE      C11            19.2321482467       -0.5880886181       19.2632142492  MEMB      24              0.0000000000
      2818        24  PMPE      H11A           19.1296565414        0.3585717606       18.6908065511  MEMB      24              0.0000000000
      2819        24  PMPE      H11B           18.2939321763       -1.1258380169       19.0084648959  MEMB      24              0.0000000000
      2820        24  PMPE      P              21.5308819483       -0.9223700868       18.1001919125  MEMB      24              0.0000000000
      2821        24  PMPE      O13            22.1526781932       -1.9682011339       17.2099333256  MEMB      24              0.0000000000
      2822        24  PMPE      O14            22.3485170318       -0.3342050148       19.2169158570  MEMB      24              0.0000000000
      2823        24  PMPE      O11            20.9028100149        0.2935461523       17.1956897044  MEMB      24              0.0000000000
      2824        24  PMPE      O12            20.1995313028       -1.4874086132       18.7472881985  MEMB      24              0.0000000000
      2825        24  PMPE      C1             21.8174127055        1.2106657957       16.4670040810  MEMB      24              0.0000000000
      2826        24  PMPE      HA             22.1529819347        0.6677367562       15.5576402949  MEMB      24              0.0000000000
      2827        24  PMPE      HB             22.6739630279        1.5037430340       17.1110135411  MEMB      24              0.0000000000
      2828        24  PMPE      C2             21.0242175761        2.4279668745       15.9467295687  MEMB      24              0.0000000000
      2829        24  PMPE      HS             20.3681135708        2.9492953812       16.6761573411  MEMB      24              0.0000000000
      2830        24  PMPE      O21            20.1326039258        1.9339300422       14.8940812494  MEMB      24              0.0000000000
      2831        24  PMPE      C21            19.0351607113        2.5947537984       14.5395263464  MEMB      24              0.0000000000
      2832        24  PMPE      O22            18.6491030124        3.6214668492       15.0490173435  MEMB      24              0.0000000000
      2833        24  PMPE      C22            18.3832447619        1.8142257573       13.4650214006  MEMB      24              0.0000000000
      2834        24  PMPE      H2R            18.3055633883        0.7234237227       13.6610768467  MEMB      24              0.0000000000
      2835        24  PMPE      H2S            18.8790519024        1.8415124203       12.4711643259  MEMB      24              0.0000000000
      2836        24  PMPE      C3             21.9713356951        3.5793840895       15.3424428462  MEMB      24              0.0000000000
      2837        24  PMPE      HX             22.6295480866        3.9005463591       16.1778661660  MEMB      24              0.0000000000
      2838        24  PMPE      HY             21.2135972898        4.3889087059       15.2729934592  MEMB      24              0.0000000000
      2839        24  PMPE      O31            22.8020918955        3.1996311484       14.2359439705  MEMB      24              0.0000000000
      2840        24  PMPE      C31            22.5048861484        3.7190875894       13.0734724375  MEMB      24              0.0000000000
      2841        24  PMPE      O32            21.5843806910        4.4119387571       12.7678512702  MEMB      24              0.0000000000
      2842        24  PMPE      C32            23.5653835928        3.2725794970       12.0931612304  MEMB      24              0.0000000000
      2843        24  PMPE      H2X            23.6279544263        2.1656545448       12.1647362702  MEMB      24              0.0000000000
      2844        24  PMPE      H2Y            24.5629799963        3.6853349415       12.3553717121  MEMB      24              0.0000000000
      2845        24  PMPE      C23            16.9299679023        2.3381101616       13.3637520993  MEMB      24              0.0000000000
      2846        24  PMPE      H3R            16.3585302290        2.3994729940       14.3145489809  MEMB      24              0.0000000000
      2847        24  PMPE      H3S            16.3701687793        1.6283517811       12.7178502756  MEMB      24              0.0000000000
      2848        24  PMPE      C24            16.7999422743        3.7272344256       12.6672466579  MEMB      24              0.0000000000
      2849        24  PMPE      H4R            17.3043011908        4.4974804284       13.2890695325  MEMB      24              0.0000000000
      2850        24  PMPE      H4S            15.7168454833        3.9665473864       12.6043850980  MEMB      24              0.0000000000
      2851        24  PMPE      C25            17.3371532611        3.6898564557       11.2432766040  MEMB      24              0.0000000000
      2852        24  PMPE      H5R            16.5665456932        4.0335506849       10.5205327794  MEMB      24              0.0000000000
      2853        24  PMPE      H5S            17.4687970956        2.6123809396       11.0065547279  MEMB      24              0.0000000000
      2854        24  PMPE      C26            18.7119515652        4.3774834464       11.0393074404  MEMB      24              0.0000000000
      2855        24  PMPE      H6R            19.3011989341        4.1351584769       11.9494651841  MEMB      24              0.0000000000
      2856        24  PMPE      H6S            18.5003176917        5.4622798237       11.1522163334  MEMB      24              0.0000000000
      2857        24  PMPE      C27            19.5087634341        4.0443840655        9.8317079292  MEMB      24              0.0000000000
      2858        24  PMPE      H7R            19.7247165565        2.9547251172        9.8135796013  MEMB      24              0.0000000000
      2859        24  PMPE      H7S            20.4809944755        4.5719069841        9.9356649535  MEMB      24              0.0000000000
      2860        24  PMPE      C28            18.9461740167        4.6262671042        8.5046693015  MEMB      24              0.0000000000
      2861        24  PMPE      H8R            19.8078477490        4.7991809206        7.8250075719  MEMB      24              0.0000000000
      2862        24  PMPE      H8S            18.3339618453        5.5529199151        8.5335099064  MEMB      24              0.0000000000
      2863        24  PMPE      C29            18.0234384474        3.5428841637        7.8965628861  MEMB      24              0.0000000000
      2864        24  PMPE      H9R            17.1060540219        3.2981015125        8.4734587557  MEMB      24              0.0000000000
      2865        24  PMPE      C217           18.8534959580        2.4246005416        7.2830727875  MEMB      24              0.0000000000
      2866        24  PMPE      H17R           18.4598285367        1.4187296013        7.2047241493  MEMB      24              0.0000000000
      2867        24  PMPE      H17S           19.8953618990        2.6572690181        7.1006727865  MEMB      24              0.0000000000
      2868        24  PMPE      C210           17.9111655022        3.3318073531        6.4088442224  MEMB      24              0.0000000000
      2869        24  PMPE      H10R           16.9481112201        2.8779881987        6.0912030857  MEMB      24              0.0000000000
      2870        24  PMPE      C211           18.4677115861        4.4240895571        5.6050834276  MEMB      24              0.0000000000
      2871        24  PMPE      H11R           19.5459694012        4.5222016092        5.8541927068  MEMB      24              0.0000000000
      2872        24  PMPE      H11S           17.9969844504        5.3445274321        6.0119390830  MEMB      24              0.0000000000
      2873        24  PMPE      C212           18.1945879937        4.3275371286        4.0208299434  MEMB      24              0.0000000000
      2874        24  PMPE      H12R           18.1787638309        5.2953989959        3.4755655577  MEMB      24              0.0000000000
      2875        24  PMPE      H12S           17.1496784764        3.9641174377        3.9187938934  MEMB      24              0.0000000000
      2876        24  PMPE      C213           19.2184417782        3.3252486028        3.3770725267  MEMB      24              0.0000000000
      2877        24  PMPE      H13R           19.2801815106        2.3874050082        3.9694899253  MEMB      24              0.0000000000
      2878        24  PMPE      H13S           20.2118154822        3.8223351148        3.3979192361  MEMB      24              0.0000000000
      2879        24  PMPE      C214           18.9952085457        2.9256067611        1.8799619129  MEMB      24              0.0000000000
      2880        24  PMPE      H14R           19.0267026010        3.8276534639        1.2321662952  MEMB      24              0.0000000000
      2881        24  PMPE      H14S           18.0124716746        2.4079731248        1.8553720132  MEMB      24              0.0000000000
      2882        24  PMPE      C215           20.1130330579        2.0994626050        1.3755869671  MEMB      24              0.0000000000
      2883        24  PMPE      H15R           19.7601443499        1.5335940608        0.4870020706  MEMB      24              0.0000000000
      2884        24  PMPE      H15S           20.5657838892        1.3973204428        2.1079344879  MEMB      24              0.0000000000
      2885        24  PMPE      C216           21.2302665405        2.9448944968        0.7540559421  MEMB      24              0.0000000000
      2886        24  PMPE      H16R           21.8489513118        2.3129772998        0.0815747820  MEMB      24              0.0000000000
      2887        24  PMPE      H16S           20.8087269409        3.7081452646        0.0655261802  MEMB      24              0.0000000000
      2888        24  PMPE      H16T           21.8710943082        3.4398643893        1.5147567336  MEMB      24              0.0000000000
      2889        24  PMPE      C33            23.0654272704        3.6095937221       10.6438906711  MEMB      24              0.0000000000
      2890        24  PMPE      H3X            23.2136692331        4.6754355185       10.3676186494  MEMB      24              0.0000000000
      2891        24  PMPE      H3Y            22.0184910878        3.2814605072       10.4690367525  MEMB      24              0.0000000000
      2892        24  PMPE      C34            23.9302067361        2.8077450585        9.5910570703  MEMB      24              0.0000000000
      2893        24  PMPE      H4X            25.0060299392        3.0848988731        9.6015652583  MEMB      24              0.0000000000
      2894        24  PMPE      H4Y            23.5136182520        3.0730628668        8.5958772756  MEMB      24              0.0000000000
      2895        24  PMPE      C35            23.8702759267        1.2303617791        9.8196256863  MEMB      24              0.0000000000
      2896        24  PMPE      H5X            24.4318571950        0.8218013345       10.6868201005  MEMB      24              0.0000000000
      2897        24  PMPE      H5Y            24.4180601034        0.7583363990        8.9761534678  MEMB      24              0.0000000000
      2898        24  PMPE      C36            22.4375927768        0.7344471990        9.8346522129  MEMB      24              0.0000000000
      2899        24  PMPE      H6X            21.8858860876        1.4416988667        9.1791090294  MEMB      24              0.0000000000
      2900        24  PMPE      H6Y            21.9771783190        0.9436471944       10.8238812635  MEMB      24              0.0000000000
      2901        24  PMPE      C37            22.2306855026       -0.6026833009        9.2726615961  MEMB      24              0.0000000000
      2902        24  PMPE      H7X            22.6229054856       -1.4012713307        9.9380506954  MEMB      24              0.0000000000
      2903        24  PMPE      H7Y            22.7104487628       -0.7650298691        8.2838285337  MEMB      24              0.0000000000
      2904        24  PMPE      C38            20.6687725657       -0.8442754079        8.9100479652  MEMB      24              0.0000000000
      2905        24  PMPE      H8X            20.4597667820       -0.1359074657        8.0800774177  MEMB      24              0.0000000000
      2906        24  PMPE      H8Y            20.0584915175       -0.7451211413        9.8331118185  MEMB      24              0.0000000000
      2907        24  PMPE      C39            20.2625457496       -2.1657343077        8.3177696284  MEMB      24              0.0000000000
      2908        24  PMPE      H9X            19.1866657015       -2.3416101567        8.5319445907  MEMB      24              0.0000000000
      2909        24  PMPE      H9Y            20.7577299644       -2.9584862156        8.9183181807  MEMB      24              0.0000000000
      2910        24  PMPE      C310           20.3457767843       -2.3712902358        6.7833286351  MEMB      24              0.0000000000
      2911        24  PMPE      H10X           19.7549735705       -3.2981091038        6.6212185753  MEMB      24              0.0000000000
      2912        24  PMPE      H10Y           21.3820556607       -2.5866748671        6.4456060110  MEMB      24              0.0000000000
      2913        24  PMPE      C311           19.7490592379       -1.3282523156        5.8849374402  MEMB      24              0.0000000000
      2914        24  PMPE      H11X           20.2229866281       -0.3314175558        6.0115637226  MEMB      24              0.0000000000
      2915        24  PMPE      H11Y           18.6780300879       -1.3791654947        6.1758419479  MEMB      24              0.0000000000
      2916        24  PMPE      C312           19.8628137671       -1.5543763366        4.3548950023  MEMB      24              0.0000000000
      2917        24  PMPE      H12X           19.5159952915       -2.6091531710        4.3163780286  MEMB      24              0.0000000000
      2918        24  PMPE      H12Y           20.9330402539       -1.3891318750        4.1066398723  MEMB      24              0.0000000000
      2919        24  PMPE      C313           18.9679081064       -0.6644471502        3.4422316779  MEMB      24              0.0000000000
      2920        24  PMPE      H13X           19.3857144031        0.3639246990        3.3952172195  MEMB      24              0.0000000000
      2921        24  PMPE      H13Y           17.9461506280       -0.6878980122        3.8778720530  MEMB      24              0.0000000000
      2922        24  PMPE      C314           18.7386891810       -1.1835231686        2.0521349013  MEMB      24              0.0000000000
      2923        24  PMPE      H14X           19.6763409791       -1.2821913280        1.4644323225  MEMB      24              0.0000000000
      2924        24  PMPE      H14Y           18.0842164780       -0.5131310410        1.4550089322  MEMB      24              0.0000000000
      2925        24  PMPE      C315           17.9300926797       -2.5418597077        2.0190419582  MEMB      24              0.0000000000
      2926        24  PMPE      H15X           16.9728296624       -2.4579554108        2.5766522965  MEMB      24              0.0000000000
      2927        24  PMPE      H15Y           18.5764763493       -3.2834942330        2.5352659967  MEMB      24              0.0000000000
      2928        24  PMPE      C316           17.4861469754       -2.9462575381        0.6847919756  MEMB      24              0.0000000000
      2929        24  PMPE      H16X           17.0272179098       -3.9575917884        0.6546610673  MEMB      24              0.0000000000
      2930        24  PMPE      H16Y           18.4227675375       -2.9860559067        0.0885719315  MEMB      24              0.0000000000
      2931        24  PMPE      H16Z           16.7353290684       -2.2599660286        0.2380280399  MEMB      24              0.0000000000
      2932        25  PMPE      N              17.3225732696        7.7970110686       21.4397019310  MEMB      25              0.0000000000
      2933        25  PMPE      HN1            16.9303834177        8.4718015706       20.7523558555  MEMB      25              0.0000000000
      2934        25  PMPE      HN2            17.2378964011        6.8030641956       21.1455941344  MEMB      25              0.0000000000
      2935        25  PMPE      HN3            16.8503909143        7.9289377083       22.3568929757  MEMB      25              0.0000000000
      2936        25  PMPE      C12            18.8217851977        8.2694544724       21.4961010105  MEMB      25              0.0000000000
      2937        25  PMPE      H12A           19.2322909254        7.8807339497       22.4525016791  MEMB      25              0.0000000000
      2938        25  PMPE      H12B           18.7187814112        9.3748493474       21.5386844701  MEMB      25              0.0000000000
      2939        25  PMPE      C11            19.7452024511        7.8869963975       20.3502401428  MEMB      25              0.0000000000
      2940        25  PMPE      H11A           19.8915716865        6.7857256228       20.3402547937  MEMB      25              0.0000000000
      2941        25  PMPE      H11B           20.7590933425        8.2860813543       20.5672134082  MEMB      25              0.0000000000
      2942        25  PMPE      P              19.8361322991        8.1870620860       17.6900371600  MEMB      25              0.0000000000
      2943        25  PMPE      O13            20.3903846010        9.5100407086       17.2843716442  MEMB      25              0.0000000000
      2944        25  PMPE      O14            18.9012591766        7.6184649259       16.7685823261  MEMB      25              0.0000000000
      2945        25  PMPE      O11            21.0449345609        7.1448478205       17.8899772929  MEMB      25              0.0000000000
      2946        25  PMPE      O12            19.1580124699        8.3106756092       19.0809884914  MEMB      25              0.0000000000
      2947        25  PMPE      C1             22.3667572119        7.5193757184       18.2330915067  MEMB      25              0.0000000000
      2948        25  PMPE      HA             22.7719025013        6.8286665425       19.0032207807  MEMB      25              0.0000000000
      2949        25  PMPE      HB             22.2964651103        8.5076181419       18.7358409170  MEMB      25              0.0000000000
      2950        25  PMPE      C2             23.2660339701        7.5203281296       17.0127159573  MEMB      25              0.0000000000
      2951        25  PMPE      HS             24.2641703152        7.7788591084       17.4264868786  MEMB      25              0.0000000000
      2952        25  PMPE      O21            22.8564867187        8.6151299795       16.0453625656  MEMB      25              0.0000000000
      2953        25  PMPE      C21            23.6403472630        8.8864612014       15.0616615358  MEMB      25              0.0000000000
      2954        25  PMPE      O22            24.7582342419        8.4925326333       14.8768426025  MEMB      25              0.0000000000
      2955        25  PMPE      C22            22.9798934422        9.9283894076       14.1484296010  MEMB      25              0.0000000000
      2956        25  PMPE      H2R            23.7910979845       10.4647664629       13.6112442271  MEMB      25              0.0000000000
      2957        25  PMPE      H2S            22.6314844481       10.7333460970       14.8303216554  MEMB      25              0.0000000000
      2958        25  PMPE      C3             23.3606285295        6.1785836251       16.3730823515  MEMB      25              0.0000000000
      2959        25  PMPE      HX             23.6718304273        5.4908404899       17.1882408501  MEMB      25              0.0000000000
      2960        25  PMPE      HY             24.2228758828        6.1411489141       15.6734760234  MEMB      25              0.0000000000
      2961        25  PMPE      O31            22.0613791458        5.7248486088       15.8373975101  MEMB      25              0.0000000000
      2962        25  PMPE      C31            22.1065847035        4.7313006385       14.9382822891  MEMB      25              0.0000000000
      2963        25  PMPE      O32            23.0256599758        3.9633985762       14.7138220141  MEMB      25              0.0000000000
      2964        25  PMPE      C32            20.7102201471        4.6222582788       14.1866215573  MEMB      25              0.0000000000
      2965        25  PMPE      H2X            20.4331125839        5.5723175375       13.6817261680  MEMB      25              0.0000000000
      2966        25  PMPE      H2Y            19.9018633410        4.4506089083       14.9291963186  MEMB      25              0.0000000000
      2967        25  PMPE      C23            21.8197701523        9.3569754023       13.2756252482  MEMB      25              0.0000000000
      2968        25  PMPE      H3R            21.1673995446       10.2527394289       13.1959990909  MEMB      25              0.0000000000
      2969        25  PMPE      H3S            21.3435822020        8.5083291719       13.8116900922  MEMB      25              0.0000000000
      2970        25  PMPE      C24            22.2030187456        8.8784523815       11.8488378373  MEMB      25              0.0000000000
      2971        25  PMPE      H4R            21.4389658370        8.3183269501       11.2684898788  MEMB      25              0.0000000000
      2972        25  PMPE      H4S            22.8722496534        8.0348975336       12.1224549720  MEMB      25              0.0000000000
      2973        25  PMPE      C25            22.6836258830       10.1100830205       10.9355628664  MEMB      25              0.0000000000
      2974        25  PMPE      H5R            23.6676971567       10.4995561165       11.2735499256  MEMB      25              0.0000000000
      2975        25  PMPE      H5S            21.9965917177       10.9819393805       10.9821630187  MEMB      25              0.0000000000
      2976        25  PMPE      C26            22.9994477582        9.6804778675        9.5633908991  MEMB      25              0.0000000000
      2977        25  PMPE      H6R            23.7341090079        8.8476518144        9.5949245241  MEMB      25              0.0000000000
      2978        25  PMPE      H6S            23.6091744941       10.4162322356        8.9966285189  MEMB      25              0.0000000000
      2979        25  PMPE      C27            21.8193927143        9.3258843812        8.5613329943  MEMB      25              0.0000000000
      2980        25  PMPE      H7R            21.0215863877       10.0731443635        8.7599002631  MEMB      25              0.0000000000
      2981        25  PMPE      H7S            21.4701253696        8.2759932076        8.6616436290  MEMB      25              0.0000000000
      2982        25  PMPE      C28            22.2139962158        9.3462838268        7.0665752613  MEMB      25              0.0000000000
      2983        25  PMPE      H8R            22.7961630960       10.2594119848        6.8183828111  MEMB      25              0.0000000000
      2984        25  PMPE      H8S            21.2593651357        9.3560662845        6.4983279246  MEMB      25              0.0000000000
      2985        25  PMPE      C29            22.9956623909        8.0321219998        6.7416547150  MEMB      25              0.0000000000
      2986        25  PMPE      H9R            22.4951451378        7.0991998111        7.0784922306  MEMB      25              0.0000000000
      2987        25  PMPE      C217           24.4667444183        8.0067005484        7.1347600917  MEMB      25              0.0000000000
      2988        25  PMPE      H17R           24.7363098161        7.0229798844        7.4987888910  MEMB      25              0.0000000000
      2989        25  PMPE      H17S           24.7872542720        8.9393004489        7.5824427156  MEMB      25              0.0000000000
      2990        25  PMPE      C210           23.9578404348        7.9704845640        5.6426336984  MEMB      25              0.0000000000
      2991        25  PMPE      H10R           24.1353504117        7.0042922971        5.1237082823  MEMB      25              0.0000000000
      2992        25  PMPE      C211           24.3381676414        9.2159302331        4.8311736327  MEMB      25              0.0000000000
      2993        25  PMPE      H11R           25.0927910245        9.0419867100        4.0345505069  MEMB      25              0.0000000000
      2994        25  PMPE      H11S           24.6369096156       10.0231130924        5.5336901461  MEMB      25              0.0000000000
      2995        25  PMPE      C212           23.0949120785        9.9092499687        4.0997117348  MEMB      25              0.0000000000
      2996        25  PMPE      H12R           22.1724782143       10.2529636323        4.6147825308  MEMB      25              0.0000000000
      2997        25  PMPE      H12S           22.6712416373        9.1592652913        3.3980372623  MEMB      25              0.0000000000
      2998        25  PMPE      C213           23.5519456199       11.1349966701        3.2601158547  MEMB      25              0.0000000000
      2999        25  PMPE      H13R           24.2223416563       11.6883924373        3.9519559257  MEMB      25              0.0000000000
      3000        25  PMPE      H13S           22.6610996258       11.7358057007        2.9777278530  MEMB      25              0.0000000000
      3001        25  PMPE      C214           24.3612963205       10.6195236771        2.0034330739  MEMB      25              0.0000000000
      3002        25  PMPE      H14R           23.8043373949        9.7761132381        1.5421560143  MEMB      25              0.0000000000
      3003        25  PMPE      H14S           25.3873320168       10.3738381059        2.3515867154  MEMB      25              0.0000000000
      3004        25  PMPE      C215           24.4216067598       11.7596279362        1.0103318385  MEMB      25              0.0000000000
      3005        25  PMPE      H15R           23.4105350435       11.9988989369        0.6168807092  MEMB      25              0.0000000000
      3006        25  PMPE      H15S           25.1093285977       11.4403612324        0.1982807854  MEMB      25              0.0000000000
      3007        25  PMPE      C216           24.9241003669       13.0729008855        1.5990594315  MEMB      25              0.0000000000
      3008        25  PMPE      H16R           25.0408626404       13.8880804192        0.8532902598  MEMB      25              0.0000000000
      3009        25  PMPE      H16S           24.2785003649       13.5268211408        2.3810304852  MEMB      25              0.0000000000
      3010        25  PMPE      H16T           25.9747405937       13.0108944837        1.9549123644  MEMB      25              0.0000000000
      3011        25  PMPE      C33            20.6995055850        3.5589048084       13.0851969603  MEMB      25              0.0000000000
      3012        25  PMPE      H3X            19.6434316771        3.2824026525       12.8788591685  MEMB      25              0.0000000000
      3013        25  PMPE      H3Y            21.1170030752        2.6450591031       13.5594358723  MEMB      25              0.0000000000
      3014        25  PMPE      C34            21.4543981790        3.9876946434       11.7883477423  MEMB      25              0.0000000000
      3015        25  PMPE      H4X            21.5640405580        3.0656444508       11.1783285988  MEMB      25              0.0000000000
      3016        25  PMPE      H4Y            22.5014279092        4.2311018614       12.0690660509  MEMB      25              0.0000000000
      3017        25  PMPE      C35            20.8097441403        5.1594443682       11.0763441991  MEMB      25              0.0000000000
      3018        25  PMPE      H5X            21.4053835649        5.3450077270       10.1570506704  MEMB      25              0.0000000000
      3019        25  PMPE      H5Y            20.9021091357        6.0931361288       11.6713309958  MEMB      25              0.0000000000
      3020        25  PMPE      C36            19.3992700182        4.8656200473       10.7588929991  MEMB      25              0.0000000000
      3021        25  PMPE      H6X            18.7512991350        4.8648260694       11.6613640527  MEMB      25              0.0000000000
      3022        25  PMPE      H6Y            19.3363359153        3.9128848155       10.1908656664  MEMB      25              0.0000000000
      3023        25  PMPE      C37            18.8894664409        5.8521291512        9.6996171411  MEMB      25              0.0000000000
      3024        25  PMPE      H7X            19.5357997624        5.7334483099        8.8037991985  MEMB      25              0.0000000000
      3025        25  PMPE      H7Y            18.9077045896        6.8806272940       10.1193543625  MEMB      25              0.0000000000
      3026        25  PMPE      C38            17.4697642056        5.5640590522        9.2819033184  MEMB      25              0.0000000000
      3027        25  PMPE      H8X            16.8529516954        5.7153442535       10.1934816543  MEMB      25              0.0000000000
      3028        25  PMPE      H8Y            17.3494291004        4.5576961859        8.8268494481  MEMB      25              0.0000000000
      3029        25  PMPE      C39            17.0014959896        6.5341132037        8.1723093368  MEMB      25              0.0000000000
      3030        25  PMPE      H9X            15.9964223810        6.1263357827        7.9317569123  MEMB      25              0.0000000000
      3031        25  PMPE      H9Y            17.6526681421        6.4216022976        7.2792041328  MEMB      25              0.0000000000
      3032        25  PMPE      C310           17.0043158380        8.0265792299        8.5991799445  MEMB      25              0.0000000000
      3033        25  PMPE      H10X           18.0543828352        8.3793388142        8.6842735062  MEMB      25              0.0000000000
      3034        25  PMPE      H10Y           16.6232060941        8.2364589443        9.6214456180  MEMB      25              0.0000000000
      3035        25  PMPE      C311           16.1894402228        8.9346898317        7.6230194034  MEMB      25              0.0000000000
      3036        25  PMPE      H11X           16.0373859534        9.9562252352        8.0324897267  MEMB      25              0.0000000000
      3037        25  PMPE      H11Y           15.1487482957        8.5564071549        7.5325581073  MEMB      25              0.0000000000
      3038        25  PMPE      C312           16.7754432174        9.0693681059        6.2682290592  MEMB      25              0.0000000000
      3039        25  PMPE      H12X           16.3703673204        9.9918422425        5.7999610371  MEMB      25              0.0000000000
      3040        25  PMPE      H12Y           16.6881160998        8.1808514582        5.6069934301  MEMB      25              0.0000000000
      3041        25  PMPE      C313           18.2691343970        9.5279006648        6.2299511331  MEMB      25              0.0000000000
      3042        25  PMPE      H13X           18.9266654504        8.6590583398        6.4469471387  MEMB      25              0.0000000000
      3043        25  PMPE      H13Y           18.3692222835       10.3455553310        6.9754335944  MEMB      25              0.0000000000
      3044        25  PMPE      C314           18.6163464199       10.0128588762        4.8232617019  MEMB      25              0.0000000000
      3045        25  PMPE      H14X           19.4511149130       10.7178251793        5.0245197725  MEMB      25              0.0000000000
      3046        25  PMPE      H14Y           17.7160450930       10.5345902383        4.4339352640  MEMB      25              0.0000000000
      3047        25  PMPE      C315           19.1190972891        8.8811471847        3.8878815731  MEMB      25              0.0000000000
      3048        25  PMPE      H15X           18.2998888655        8.1645419985        3.6649561272  MEMB      25              0.0000000000
      3049        25  PMPE      H15Y           19.9456106653        8.2600871570        4.2946754565  MEMB      25              0.0000000000
      3050        25  PMPE      C316           19.5956103612        9.3473764220        2.4802755693  MEMB      25              0.0000000000
      3051        25  PMPE      H16X           18.8010765475        9.8273855777        1.8698433463  MEMB      25              0.0000000000
      3052        25  PMPE      H16Y           20.1541828233        8.5531409733        1.9403614650  MEMB      25              0.0000000000
      3053        25  PMPE      H16Z           20.3262413999       10.1540379147        2.7034272252  MEMB      25              0.0000000000
      3054        26  PMPE      N               2.3153835865      -23.1285073806       21.6168160213  MEMB      26              0.0000000000
      3055        26  PMPE      HN1             2.2550095649      -22.3779468128       22.3341819821  MEMB      26              0.0000000000
      3056        26  PMPE      HN2             1.5002643108      -23.7463382146       21.4284929340  MEMB      26              0.0000000000
      3057        26  PMPE      HN3             3.1435915739      -23.7453019934       21.7402498397  MEMB      26              0.0000000000
      3058        26  PMPE      C12             2.3971203537      -22.5240482020       20.2773868412  MEMB      26              0.0000000000
      3059        26  PMPE      H12A            2.0597484075      -23.2760467561       19.5324039513  MEMB      26              0.0000000000
      3060        26  PMPE      H12B            3.4418090905      -22.2322732707       20.0369422872  MEMB      26              0.0000000000
      3061        26  PMPE      C11             1.3174138205      -21.4047102191       20.1338852054  MEMB      26              0.0000000000
      3062        26  PMPE      H11A            1.6909995021      -20.5048717428       20.6677817455  MEMB      26              0.0000000000
      3063        26  PMPE      H11B            0.3876725433      -21.7346075375       20.6448352814  MEMB      26              0.0000000000
      3064        26  PMPE      P              -0.3555678997      -21.4058047965       18.0756375667  MEMB      26              0.0000000000
      3065        26  PMPE      O13            -1.3280684322      -20.3381880271       18.3391375247  MEMB      26              0.0000000000
      3066        26  PMPE      O14            -0.7455966741      -22.8119142712       18.3063888549  MEMB      26              0.0000000000
      3067        26  PMPE      O11            -0.0263038025      -21.2521439005       16.5181729890  MEMB      26              0.0000000000
      3068        26  PMPE      O12             1.0913038927      -21.1337000014       18.7325749639  MEMB      26              0.0000000000
      3069        26  PMPE      C1              1.2817038975      -21.5174447680       16.0820056595  MEMB      26              0.0000000000
      3070        26  PMPE      HA              1.6874148712      -22.3040548726       16.7535442666  MEMB      26              0.0000000000
      3071        26  PMPE      HB              1.8366898222      -20.5575617697       16.1522641188  MEMB      26              0.0000000000
      3072        26  PMPE      C2              1.3132094193      -22.0935678513       14.6403216830  MEMB      26              0.0000000000
      3073        26  PMPE      HS              2.3837596700      -22.0379841560       14.3485104341  MEMB      26              0.0000000000
      3074        26  PMPE      O21             0.3891916551      -21.4616914593       13.7147212450  MEMB      26              0.0000000000
      3075        26  PMPE      C21             0.7339193572      -20.2920227883       13.3786542221  MEMB      26              0.0000000000
      3076        26  PMPE      O22             1.6067295627      -19.5383302289       13.8554694032  MEMB      26              0.0000000000
      3077        26  PMPE      C22             0.0178221343      -20.0438601980       12.0049560538  MEMB      26              0.0000000000
      3078        26  PMPE      H2R            -0.9417834778      -19.5285063486       12.2237904364  MEMB      26              0.0000000000
      3079        26  PMPE      H2S            -0.1938465023      -21.0070396387       11.4932895315  MEMB      26              0.0000000000
      3080        26  PMPE      C3              0.9492589119      -23.5656305564       14.5809214693  MEMB      26              0.0000000000
      3081        26  PMPE      HX             -0.0598085916      -23.7905140105       14.9877766285  MEMB      26              0.0000000000
      3082        26  PMPE      HY              1.6928949537      -24.0793962417       15.2269641289  MEMB      26              0.0000000000
      3083        26  PMPE      O31             0.9658599802      -24.0858521192       13.2221759976  MEMB      26              0.0000000000
      3084        26  PMPE      C31             2.1992027621      -24.6474035532       12.7881031852  MEMB      26              0.0000000000
      3085        26  PMPE      O32             3.1489625968      -24.8843004048       13.5535827792  MEMB      26              0.0000000000
      3086        26  PMPE      C32             2.2042224408      -25.0010435373       11.3045977033  MEMB      26              0.0000000000
      3087        26  PMPE      H2X             1.1496596669      -25.1579094435       10.9921697694  MEMB      26              0.0000000000
      3088        26  PMPE      H2Y             2.7936569162      -25.9400127468       11.2323121795  MEMB      26              0.0000000000
      3089        26  PMPE      C23             0.8344002035      -19.1224150239       11.0280498385  MEMB      26              0.0000000000
      3090        26  PMPE      H3R             1.9224914657      -19.2920594982       10.8810827908  MEMB      26              0.0000000000
      3091        26  PMPE      H3S             0.9151179510      -18.1267746909       11.5143685939  MEMB      26              0.0000000000
      3092        26  PMPE      C24             0.2677888054      -18.8107366329        9.6662125616  MEMB      26              0.0000000000
      3093        26  PMPE      H4R             0.9633213406      -18.1095867554        9.1573464863  MEMB      26              0.0000000000
      3094        26  PMPE      H4S            -0.6905938746      -18.2911496113        9.8803455292  MEMB      26              0.0000000000
      3095        26  PMPE      C25             0.0730957849      -20.0681296449        8.7744294131  MEMB      26              0.0000000000
      3096        26  PMPE      H5R            -0.7943424103      -20.5924598303        9.2293464438  MEMB      26              0.0000000000
      3097        26  PMPE      H5S             0.9309522947      -20.7531983918        8.9449698159  MEMB      26              0.0000000000
      3098        26  PMPE      C26            -0.1903359499      -19.8000540081        7.2584343638  MEMB      26              0.0000000000
      3099        26  PMPE      H6R             0.0793493964      -20.7209012139        6.6984061769  MEMB      26              0.0000000000
      3100        26  PMPE      H6S             0.5026555960      -19.0191871556        6.8785254052  MEMB      26              0.0000000000
      3101        26  PMPE      C27            -1.6394863679      -19.4838594749        6.9807317080  MEMB      26              0.0000000000
      3102        26  PMPE      H7R            -2.0063200984      -18.7652883805        7.7445440645  MEMB      26              0.0000000000
      3103        26  PMPE      H7S            -2.3191314443      -20.3471249299        7.1455846286  MEMB      26              0.0000000000
      3104        26  PMPE      C28            -1.8378677195      -19.0565859963        5.4474978568  MEMB      26              0.0000000000
      3105        26  PMPE      H8R            -1.6120129929      -19.9398877704        4.8126046413  MEMB      26              0.0000000000
      3106        26  PMPE      H8S            -1.1322467919      -18.2326780072        5.2075058551  MEMB      26              0.0000000000
      3107        26  PMPE      C29            -3.2318375670      -18.4047939924        5.2577911185  MEMB      26              0.0000000000
      3108        26  PMPE      H9R            -3.5718645554      -17.6636317147        6.0123644815  MEMB      26              0.0000000000
      3109        26  PMPE      C217           -4.2545390748      -19.3631665092        4.6540216534  MEMB      26              0.0000000000
      3110        26  PMPE      H17R           -5.3267107285      -19.2381560840        4.7418263428  MEMB      26              0.0000000000
      3111        26  PMPE      H17S           -3.7466078857      -20.2638199758        4.3319695442  MEMB      26              0.0000000000
      3112        26  PMPE      C210           -3.6420496301      -18.2204600047        3.8232742667  MEMB      26              0.0000000000
      3113        26  PMPE      H10R           -4.2761285998      -17.3267327913        3.6401980645  MEMB      26              0.0000000000
      3114        26  PMPE      C211           -2.8752341867      -18.7468468679        2.5845997858  MEMB      26              0.0000000000
      3115        26  PMPE      H11R           -3.5740455995      -18.6212863323        1.7300720861  MEMB      26              0.0000000000
      3116        26  PMPE      H11S           -2.6249966588      -19.8134606713        2.7690912035  MEMB      26              0.0000000000
      3117        26  PMPE      C212           -1.7371833338      -17.7522781144        2.3440281341  MEMB      26              0.0000000000
      3118        26  PMPE      H12R           -1.4300818951      -17.1731065540        3.2410063646  MEMB      26              0.0000000000
      3119        26  PMPE      H12S           -2.1077325614      -17.1774754094        1.4684623891  MEMB      26              0.0000000000
      3120        26  PMPE      C213           -0.4341526445      -18.4512031565        1.7095374181  MEMB      26              0.0000000000
      3121        26  PMPE      H13R           -0.0398120297      -19.1560378837        2.4724428227  MEMB      26              0.0000000000
      3122        26  PMPE      H13S            0.3963594253      -17.7844492109        1.3932941345  MEMB      26              0.0000000000
      3123        26  PMPE      C214           -0.8164169324      -19.4322692444        0.5550836166  MEMB      26              0.0000000000
      3124        26  PMPE      H14R           -1.5342348558      -20.1581699195        0.9934056469  MEMB      26              0.0000000000
      3125        26  PMPE      H14S            0.1297089021      -19.9943577036        0.4026919814  MEMB      26              0.0000000000
      3126        26  PMPE      C215           -1.2560953009      -18.7857434427       -0.8003340334  MEMB      26              0.0000000000
      3127        26  PMPE      H15R           -2.1880115478      -18.1845761097       -0.7336193956  MEMB      26              0.0000000000
      3128        26  PMPE      H15S           -1.5058225080      -19.6436020039       -1.4606649318  MEMB      26              0.0000000000
      3129        26  PMPE      C216           -0.2707280064      -18.0374061170       -1.5879966372  MEMB      26              0.0000000000
      3130        26  PMPE      H16R           -0.7545493638      -17.5802115601       -2.4774968889  MEMB      26              0.0000000000
      3131        26  PMPE      H16S            0.1206502417      -17.2594018571       -0.8981760961  MEMB      26              0.0000000000
      3132        26  PMPE      H16T            0.5510047416      -18.6260972070       -2.0489957422  MEMB      26              0.0000000000
      3133        26  PMPE      C33             2.8541571651      -23.8846137513       10.4115055434  MEMB      26              0.0000000000
      3134        26  PMPE      H3X             3.8826969971      -23.5495863364       10.6648502509  MEMB      26              0.0000000000
      3135        26  PMPE      H3Y             2.2094413612      -22.9809373517       10.4565766591  MEMB      26              0.0000000000
      3136        26  PMPE      C34             2.9382774340      -24.2992226305        8.8632899035  MEMB      26              0.0000000000
      3137        26  PMPE      H4X             1.9250312190      -24.5711164983        8.4976035371  MEMB      26              0.0000000000
      3138        26  PMPE      H4Y             3.7311748963      -25.0646064712        8.7224987925  MEMB      26              0.0000000000
      3139        26  PMPE      C35             3.3658400765      -23.1155049978        7.9053240279  MEMB      26              0.0000000000
      3140        26  PMPE      H5X             4.4328592956      -22.8738666957        8.0987190271  MEMB      26              0.0000000000
      3141        26  PMPE      H5Y             2.9041066929      -22.1543425153        8.2172372949  MEMB      26              0.0000000000
      3142        26  PMPE      C36             3.3011237395      -23.3883283045        6.3688865882  MEMB      26              0.0000000000
      3143        26  PMPE      H6X             3.7418434770      -24.3934031393        6.1959364642  MEMB      26              0.0000000000
      3144        26  PMPE      H6Y             3.6656714817      -22.6122108856        5.6624395226  MEMB      26              0.0000000000
      3145        26  PMPE      C37             1.8489316797      -23.4841812340        5.7588884694  MEMB      26              0.0000000000
      3146        26  PMPE      H7X             1.3539669833      -22.5379407676        6.0654174251  MEMB      26              0.0000000000
      3147        26  PMPE      H7Y             1.3087431321      -24.3121396365        6.2658419984  MEMB      26              0.0000000000
      3148        26  PMPE      C38             1.7764558514      -23.4919354057        4.2766447468  MEMB      26              0.0000000000
      3149        26  PMPE      H8X             2.0927982043      -24.5171914952        3.9883761660  MEMB      26              0.0000000000
      3150        26  PMPE      H8Y             2.5109159043      -22.7247130466        3.9506702915  MEMB      26              0.0000000000
      3151        26  PMPE      C39             0.3562950449      -23.1653508321        3.8288054463  MEMB      26              0.0000000000
      3152        26  PMPE      H9X             0.0723301070      -22.1936888076        4.2865809377  MEMB      26              0.0000000000
      3153        26  PMPE      H9Y            -0.3612612569      -23.9742879317        4.0838636902  MEMB      26              0.0000000000
      3154        26  PMPE      C310            0.1575774926      -22.7176842784        2.3489529996  MEMB      26              0.0000000000
      3155        26  PMPE      H10X            0.9330639127      -21.9374293071        2.1935694389  MEMB      26              0.0000000000
      3156        26  PMPE      H10Y           -0.7703906198      -22.1252518182        2.1998913688  MEMB      26              0.0000000000
      3157        26  PMPE      C311            0.5569322976      -23.7983735140        1.2409373709  MEMB      26              0.0000000000
      3158        26  PMPE      H11X            1.6364957358      -24.0052417350        1.4023965305  MEMB      26              0.0000000000
      3159        26  PMPE      H11Y            0.4089990243      -23.2679235131        0.2760224522  MEMB      26              0.0000000000
      3160        26  PMPE      C312           -0.2079225762      -25.1229950813        1.2845357764  MEMB      26              0.0000000000
      3161        26  PMPE      H12X           -0.0283883227      -25.4996580598        2.3142017729  MEMB      26              0.0000000000
      3162        26  PMPE      H12Y            0.1626821345      -25.8985779059        0.5806567588  MEMB      26              0.0000000000
      3163        26  PMPE      C313           -1.6832279632      -25.1213845683        1.0784194620  MEMB      26              0.0000000000
      3164        26  PMPE      H13X           -2.0107218619      -24.2190355426        1.6377360201  MEMB      26              0.0000000000
      3165        26  PMPE      H13Y           -2.1899653868      -26.0647091881        1.3745220974  MEMB      26              0.0000000000
      3166        26  PMPE      C314           -2.0588734252      -24.7240898405       -0.3247591496  MEMB      26              0.0000000000
      3167        26  PMPE      H14X           -1.7714016149      -23.6529940001       -0.3913543343  MEMB      26              0.0000000000
      3168        26  PMPE      H14Y           -3.1684826303      -24.7299347442       -0.3800271986  MEMB      26              0.0000000000
      3169        26  PMPE      C315           -1.5520759416      -25.6278675314       -1.4201755272  MEMB      26              0.0000000000
      3170        26  PMPE      H15X           -1.9682444753      -26.6459532710       -1.2632478658  MEMB      26              0.0000000000
      3171        26  PMPE      H15Y           -0.4541502581      -25.7678599913       -1.3238263231  MEMB      26              0.0000000000
      3172        26  PMPE      C316           -1.9214566394      -25.1017242373       -2.8110037573  MEMB      26              0.0000000000
      3173        26  PMPE      H16X           -1.5620295073      -25.8874721654       -3.5093821423  MEMB      26              0.0000000000
      3174        26  PMPE      H16Y           -1.4172748353      -24.1456982867       -3.0681719597  MEMB      26              0.0000000000
      3175        26  PMPE      H16Z           -3.0255073211      -25.0460433605       -2.9218756045  MEMB      26              0.0000000000
      3176        27  PMPE      N             -24.5199990003       -2.5880134695       22.0031052482  MEMB      27              0.0000000000
      3177        27  PMPE      HN1           -24.1031350205       -2.6339699033       22.9547946480  MEMB      27              0.0000000000
      3178        27  PMPE      HN2           -24.3506856502       -1.6211291905       21.6594954011  MEMB      27              0.0000000000
      3179        27  PMPE      HN3           -25.5048821049       -2.8643728086       22.1908037170  MEMB      27              0.0000000000
      3180        27  PMPE      C12           -23.8813954757       -3.6050480659       21.0331008516  MEMB      27              0.0000000000
      3181        27  PMPE      H12A          -23.9594584329       -4.5496039804       21.6127915437  MEMB      27              0.0000000000
      3182        27  PMPE      H12B          -22.8079913577       -3.3833069363       20.8515645435  MEMB      27              0.0000000000
      3183        27  PMPE      C11           -24.5447105611       -3.8432365291       19.6811977186  MEMB      27              0.0000000000
      3184        27  PMPE      H11A          -25.6022643556       -4.1675459702       19.7847563095  MEMB      27              0.0000000000
      3185        27  PMPE      H11B          -24.0038561161       -4.7349575696       19.2982732281  MEMB      27              0.0000000000
      3186        27  PMPE      P             -23.3187518493       -2.5052484928       17.8370971976  MEMB      27              0.0000000000
      3187        27  PMPE      O13           -22.0475305135       -2.2901776915       18.5647872589  MEMB      27              0.0000000000
      3188        27  PMPE      O14           -23.8185203944       -1.3944981668       16.9187923623  MEMB      27              0.0000000000
      3189        27  PMPE      O11           -23.1276906618       -3.9422745927       17.1067912657  MEMB      27              0.0000000000
      3190        27  PMPE      O12           -24.4680506395       -2.6994392315       18.8551280990  MEMB      27              0.0000000000
      3191        27  PMPE      C1            -23.9498230230       -4.2437603599       15.9079487786  MEMB      27              0.0000000000
      3192        27  PMPE      HA            -24.3230699341       -3.3802949908       15.3168182316  MEMB      27              0.0000000000
      3193        27  PMPE      HB            -24.8021662003       -4.8419198210       16.2952954306  MEMB      27              0.0000000000
      3194        27  PMPE      C2            -23.3190702634       -5.2826932760       14.9027366653  MEMB      27              0.0000000000
      3195        27  PMPE      HS            -22.9783138115       -6.0597496749       15.6199458961  MEMB      27              0.0000000000
      3196        27  PMPE      O21           -22.3178803254       -4.6248948070       14.1132698170  MEMB      27              0.0000000000
      3197        27  PMPE      C21           -21.3261513830       -5.3870638761       13.7562981411  MEMB      27              0.0000000000
      3198        27  PMPE      O22           -21.2094010838       -6.5617999080       14.1259924071  MEMB      27              0.0000000000
      3199        27  PMPE      C22           -20.3670646943       -4.5147367521       12.9065792893  MEMB      27              0.0000000000
      3200        27  PMPE      H2R           -20.8290698356       -4.5344657838       11.8963899908  MEMB      27              0.0000000000
      3201        27  PMPE      H2S           -19.4298450834       -5.1041849148       12.9987260876  MEMB      27              0.0000000000
      3202        27  PMPE      C3            -24.4199691974       -5.8031254307       13.9557298899  MEMB      27              0.0000000000
      3203        27  PMPE      HX            -25.0952426492       -6.4173251211       14.5890431172  MEMB      27              0.0000000000
      3204        27  PMPE      HY            -23.8966484103       -6.3921505640       13.1724639224  MEMB      27              0.0000000000
      3205        27  PMPE      O31           -25.0533185724       -4.6623509794       13.3852449840  MEMB      27              0.0000000000
      3206        27  PMPE      C31           -25.0671924320       -4.3872326139       12.1450631048  MEMB      27              0.0000000000
      3207        27  PMPE      O32           -24.6060702407       -5.0909580595       11.2383798484  MEMB      27              0.0000000000
      3208        27  PMPE      C32           -25.8043791954       -3.0621371468       12.0026703482  MEMB      27              0.0000000000
      3209        27  PMPE      H2X           -25.3305434100       -2.2367373239       12.5758332537  MEMB      27              0.0000000000
      3210        27  PMPE      H2Y           -26.8030218543       -3.2340244895       12.4581798878  MEMB      27              0.0000000000
      3211        27  PMPE      C23           -19.9882490546       -3.1350711157       13.3762842009  MEMB      27              0.0000000000
      3212        27  PMPE      H3R           -18.9264751952       -2.8223378516       13.2805978025  MEMB      27              0.0000000000
      3213        27  PMPE      H3S           -20.2631211085       -3.0628380424       14.4503180145  MEMB      27              0.0000000000
      3214        27  PMPE      C24           -20.8086535071       -2.0330225746       12.5661633577  MEMB      27              0.0000000000
      3215        27  PMPE      H4R           -20.7835271890       -1.0350828386       13.0538168924  MEMB      27              0.0000000000
      3216        27  PMPE      H4S           -21.8703337055       -2.3159181794       12.4014629171  MEMB      27              0.0000000000
      3217        27  PMPE      C25           -20.3445311812       -1.8200643067       11.1264282830  MEMB      27              0.0000000000
      3218        27  PMPE      H5R           -20.5514276726       -2.7178031094       10.5054776960  MEMB      27              0.0000000000
      3219        27  PMPE      H5S           -19.2504365667       -1.6289309058       11.1537486896  MEMB      27              0.0000000000
      3220        27  PMPE      C26           -21.0795317205       -0.8193068103       10.3123021566  MEMB      27              0.0000000000
      3221        27  PMPE      H6R           -20.9731600322        0.1549674117       10.8355572092  MEMB      27              0.0000000000
      3222        27  PMPE      H6S           -22.1472137627       -0.8857926392       10.6122287113  MEMB      27              0.0000000000
      3223        27  PMPE      C27           -20.9372157433       -0.8162976400        8.7790604131  MEMB      27              0.0000000000
      3224        27  PMPE      H7R           -20.7084738461       -1.8695644247        8.5095663969  MEMB      27              0.0000000000
      3225        27  PMPE      H7S           -20.1305892514       -0.0909147258        8.5392804066  MEMB      27              0.0000000000
      3226        27  PMPE      C28           -22.2457658535       -0.3781653776        8.0995062600  MEMB      27              0.0000000000
      3227        27  PMPE      H8R           -23.1111599588       -0.7584647480        8.6832750719  MEMB      27              0.0000000000
      3228        27  PMPE      H8S           -22.3615443499       -0.9579856513        7.1589078798  MEMB      27              0.0000000000
      3229        27  PMPE      C29           -22.4571339390        1.1161437176        7.8872814911  MEMB      27              0.0000000000
      3230        27  PMPE      H9R           -21.6024897545        1.8236519902        7.9450427378  MEMB      27              0.0000000000
      3231        27  PMPE      C217          -23.4419340258        1.8225806431        8.7990362384  MEMB      27              0.0000000000
      3232        27  PMPE      H17R          -23.1025107788        2.8368771757        8.9689886486  MEMB      27              0.0000000000
      3233        27  PMPE      H17S          -24.0052332616        1.1910641792        9.4748838007  MEMB      27              0.0000000000
      3234        27  PMPE      C210          -23.8335023101        1.6806795751        7.3096328144  MEMB      27              0.0000000000
      3235        27  PMPE      H10R          -23.7698473350        2.6284152671        6.7333799345  MEMB      27              0.0000000000
      3236        27  PMPE      C211          -24.9840951490        0.7902648759        7.0202932930  MEMB      27              0.0000000000
      3237        27  PMPE      H11R          -25.9498226442        1.3390027331        7.0443446600  MEMB      27              0.0000000000
      3238        27  PMPE      H11S          -24.9255440953       -0.0583006706        7.7350160526  MEMB      27              0.0000000000
      3239        27  PMPE      C212          -24.8036773164        0.3816914583        5.5887326903  MEMB      27              0.0000000000
      3240        27  PMPE      H12R          -23.8124858874       -0.1160170529        5.5243378309  MEMB      27              0.0000000000
      3241        27  PMPE      H12S          -24.7627996121        1.3511112806        5.0475530002  MEMB      27              0.0000000000
      3242        27  PMPE      C213          -25.9091207933       -0.5315261657        5.0687283402  MEMB      27              0.0000000000
      3243        27  PMPE      H13R          -26.8855016566       -0.0938557153        5.3678040282  MEMB      27              0.0000000000
      3244        27  PMPE      H13S          -25.7158636630       -1.4940747768        5.5887991159  MEMB      27              0.0000000000
      3245        27  PMPE      C214          -25.9779722109       -1.0003327844        3.6098169593  MEMB      27              0.0000000000
      3246        27  PMPE      H14R          -26.9989139995       -1.4039626866        3.4392836812  MEMB      27              0.0000000000
      3247        27  PMPE      H14S          -25.2670450246       -1.8516333116        3.5450791418  MEMB      27              0.0000000000
      3248        27  PMPE      C215          -25.7039299481        0.1062171516        2.5347731536  MEMB      27              0.0000000000
      3249        27  PMPE      H15R          -25.9729591252       -0.3231274179        1.5460320347  MEMB      27              0.0000000000
      3250        27  PMPE      H15S          -24.6179870069        0.3395740912        2.5591246612  MEMB      27              0.0000000000
      3251        27  PMPE      C216          -26.4560261656        1.4060739972        2.6802519237  MEMB      27              0.0000000000
      3252        27  PMPE      H16R          -26.2270773783        2.1074131710        1.8495726492  MEMB      27              0.0000000000
      3253        27  PMPE      H16S          -27.5164265589        1.0798573691        2.7390306542  MEMB      27              0.0000000000
      3254        27  PMPE      H16T          -26.1879365837        1.9834856448        3.5907712323  MEMB      27              0.0000000000
      3255        27  PMPE      C33           -25.7652196326       -2.6335519194       10.5823804794  MEMB      27              0.0000000000
      3256        27  PMPE      H3X           -24.7049245278       -2.5618477273       10.2584150758  MEMB      27              0.0000000000
      3257        27  PMPE      H3Y           -26.2156607193       -1.6199728081       10.5184962104  MEMB      27              0.0000000000
      3258        27  PMPE      C34           -26.5193164324       -3.6215019021        9.5845143701  MEMB      27              0.0000000000
      3259        27  PMPE      H4X           -27.4186171079       -3.8864785520       10.1806413640  MEMB      27              0.0000000000
      3260        27  PMPE      H4Y           -25.9571645166       -4.5635563289        9.4089019240  MEMB      27              0.0000000000
      3261        27  PMPE      C35           -26.7963836429       -3.0662708594        8.2003990987  MEMB      27              0.0000000000
      3262        27  PMPE      H5X           -25.9216113006       -2.4629208046        7.8762656862  MEMB      27              0.0000000000
      3263        27  PMPE      H5Y           -27.6146072721       -2.3232767437        8.3134965045  MEMB      27              0.0000000000
      3264        27  PMPE      C36           -27.1050753534       -4.1434272642        7.1038194370  MEMB      27              0.0000000000
      3265        27  PMPE      H6X           -27.5163524207       -3.6285466695        6.2093536637  MEMB      27              0.0000000000
      3266        27  PMPE      H6Y           -27.9548783050       -4.7404375000        7.4984527068  MEMB      27              0.0000000000
      3267        27  PMPE      C37           -25.9693703784       -5.0663508868        6.7342019171  MEMB      27              0.0000000000
      3268        27  PMPE      H7X           -26.4241170034       -5.7461351491        5.9822577613  MEMB      27              0.0000000000
      3269        27  PMPE      H7Y           -25.7198032311       -5.7719883002        7.5552454851  MEMB      27              0.0000000000
      3270        27  PMPE      C38           -24.7857452706       -4.5363519224        6.0607988453  MEMB      27              0.0000000000
      3271        27  PMPE      H8X           -24.3727352575       -3.8211894280        6.8039582624  MEMB      27              0.0000000000
      3272        27  PMPE      H8Y           -25.1394405239       -3.8138376034        5.2945125082  MEMB      27              0.0000000000
      3273        27  PMPE      C39           -23.8920442043       -5.6049059013        5.4252551000  MEMB      27              0.0000000000
      3274        27  PMPE      H9X           -24.6153274646       -6.0679614346        4.7204410910  MEMB      27              0.0000000000
      3275        27  PMPE      H9Y           -23.5657768540       -6.3230857592        6.2076159870  MEMB      27              0.0000000000
      3276        27  PMPE      C310          -22.6719069162       -5.1584788361        4.6053295405  MEMB      27              0.0000000000
      3277        27  PMPE      H10X          -22.0967051273       -6.1083881042        4.6390364533  MEMB      27              0.0000000000
      3278        27  PMPE      H10Y          -22.0977675709       -4.3796076491        5.1512647210  MEMB      27              0.0000000000
      3279        27  PMPE      C311          -22.9175228360       -4.7267445434        3.1625715856  MEMB      27              0.0000000000
      3280        27  PMPE      H11X          -21.9972861351       -4.4133578317        2.6247304521  MEMB      27              0.0000000000
      3281        27  PMPE      H11Y          -23.5483878221       -3.8207003474        3.0384196103  MEMB      27              0.0000000000
      3282        27  PMPE      C312          -23.5075544220       -5.8425568873        2.2719396785  MEMB      27              0.0000000000
      3283        27  PMPE      H12X          -24.4959893740       -6.1177413938        2.6980741408  MEMB      27              0.0000000000
      3284        27  PMPE      H12Y          -22.8292734188       -6.7199833035        2.2057695869  MEMB      27              0.0000000000
      3285        27  PMPE      C313          -23.8177329874       -5.3440291669        0.8381348713  MEMB      27              0.0000000000
      3286        27  PMPE      H13X          -24.3676100344       -4.3984537434        1.0326678990  MEMB      27              0.0000000000
      3287        27  PMPE      H13Y          -24.5385640156       -6.1016155374        0.4629207197  MEMB      27              0.0000000000
      3288        27  PMPE      C314          -22.5601427093       -5.3786308582       -0.0299784094  MEMB      27              0.0000000000
      3289        27  PMPE      H14X          -22.0187853205       -6.3485138907       -0.0058894429  MEMB      27              0.0000000000
      3290        27  PMPE      H14Y          -21.7808766924       -4.6578002278        0.2978457570  MEMB      27              0.0000000000
      3291        27  PMPE      C315          -22.9113902178       -4.9658995032       -1.5552641203  MEMB      27              0.0000000000
      3292        27  PMPE      H15X          -23.3689037541       -3.9567285752       -1.4741683551  MEMB      27              0.0000000000
      3293        27  PMPE      H15Y          -23.8274744819       -5.5559972142       -1.7718164866  MEMB      27              0.0000000000
      3294        27  PMPE      C316          -21.7653676435       -5.0794565965       -2.5520333276  MEMB      27              0.0000000000
      3295        27  PMPE      H16X          -21.2002270383       -4.1433038857       -2.3556775108  MEMB      27              0.0000000000
      3296        27  PMPE      H16Y          -22.0881229009       -5.0778165512       -3.6151179726  MEMB      27              0.0000000000
      3297        27  PMPE      H16Z          -21.0075726109       -5.8194756114       -2.2167149175  MEMB      27              0.0000000000
      3298        28  PMPE      N              20.8542992796      -10.5726113812       21.5698106864  MEMB      28              0.0000000000
      3299        28  PMPE      HN1            20.5965541683      -11.0015218750       22.4815143397  MEMB      28              0.0000000000
      3300        28  PMPE      HN2            21.7255928471      -10.0089893106       21.6389317523  MEMB      28              0.0000000000
      3301        28  PMPE      HN3            20.0102394469      -10.0679973107       21.2313914609  MEMB      28              0.0000000000
      3302        28  PMPE      C12            21.2767362421      -11.6970336783       20.5704979636  MEMB      28              0.0000000000
      3303        28  PMPE      H12A           20.6722018509      -12.6086417038       20.7649973229  MEMB      28              0.0000000000
      3304        28  PMPE      H12B           22.3526986044      -11.9058456591       20.7522217284  MEMB      28              0.0000000000
      3305        28  PMPE      C11            20.9799522133      -11.1429131522       19.1818412660  MEMB      28              0.0000000000
      3306        28  PMPE      H11A           19.9041181874      -10.9880909859       18.9517712596  MEMB      28              0.0000000000
      3307        28  PMPE      H11B           21.2715463266      -11.8949231666       18.4177896737  MEMB      28              0.0000000000
      3308        28  PMPE      P              21.2589654419       -8.7123948887       18.1988055605  MEMB      28              0.0000000000
      3309        28  PMPE      O13            22.3944051577       -7.7470858392       17.9390239783  MEMB      28              0.0000000000
      3310        28  PMPE      O14            19.9982564685       -8.2376426752       18.7108863696  MEMB      28              0.0000000000
      3311        28  PMPE      O11            20.9594081653       -9.2801433874       16.7708942362  MEMB      28              0.0000000000
      3312        28  PMPE      O12            21.7879154295       -9.8925402761       19.0582399456  MEMB      28              0.0000000000
      3313        28  PMPE      C1             21.8005717604      -10.1883064254       16.1160639289  MEMB      28              0.0000000000
      3314        28  PMPE      HA             21.1948842714      -11.1171548002       16.1846518080  MEMB      28              0.0000000000
      3315        28  PMPE      HB             22.7713310848      -10.4167408648       16.6057218580  MEMB      28              0.0000000000
      3316        28  PMPE      C2             22.1640036748       -9.8902556938       14.7029810170  MEMB      28              0.0000000000
      3317        28  PMPE      HS             22.9636423066       -9.1232418505       14.6218095929  MEMB      28              0.0000000000
      3318        28  PMPE      O21            21.0962641845       -9.3138408590       14.0061737857  MEMB      28              0.0000000000
      3319        28  PMPE      C21            20.8664020346       -7.9582768837       14.1410729851  MEMB      28              0.0000000000
      3320        28  PMPE      O22            21.5493221167       -7.1483151370       14.7283109268  MEMB      28              0.0000000000
      3321        28  PMPE      C22            19.5005397761       -7.6486600523       13.5402455101  MEMB      28              0.0000000000
      3322        28  PMPE      H2R            19.2725964769       -6.5657673540       13.6387662852  MEMB      28              0.0000000000
      3323        28  PMPE      H2S            18.8076340140       -8.3707683222       14.0227000499  MEMB      28              0.0000000000
      3324        28  PMPE      C3             22.5577165923      -11.1276102334       13.8897049679  MEMB      28              0.0000000000
      3325        28  PMPE      HX             21.7674285898      -11.9010467853       13.9972304548  MEMB      28              0.0000000000
      3326        28  PMPE      HY             23.5388258841      -11.5771611093       14.1536165293  MEMB      28              0.0000000000
      3327        28  PMPE      O31            22.4466012683      -10.8355757870       12.4566898428  MEMB      28              0.0000000000
      3328        28  PMPE      C31            23.3977605834      -10.1195215124       11.8626323411  MEMB      28              0.0000000000
      3329        28  PMPE      O32            24.5279468272       -9.8060672691       12.2518377557  MEMB      28              0.0000000000
      3330        28  PMPE      C32            22.9341424972       -9.6944852821       10.4640831756  MEMB      28              0.0000000000
      3331        28  PMPE      H2X            22.5853340522       -8.6411944569       10.5209337283  MEMB      28              0.0000000000
      3332        28  PMPE      H2Y            22.0813554794      -10.3649956114       10.2243094916  MEMB      28              0.0000000000
      3333        28  PMPE      C23            19.3641939766       -8.0664856728       12.0446470452  MEMB      28              0.0000000000
      3334        28  PMPE      H3R            18.3479704404       -8.3732490122       11.7167645479  MEMB      28              0.0000000000
      3335        28  PMPE      H3S            19.9786654064       -8.9674632460       11.8325489620  MEMB      28              0.0000000000
      3336        28  PMPE      C24            19.8558353490       -7.0025475219       11.0814107207  MEMB      28              0.0000000000
      3337        28  PMPE      H4R            20.8665967793       -6.8036938917       11.4975111945  MEMB      28              0.0000000000
      3338        28  PMPE      H4S            19.2540792721       -6.0719390488       11.0028068052  MEMB      28              0.0000000000
      3339        28  PMPE      C25            19.8523978223       -7.5224292949        9.6737066828  MEMB      28              0.0000000000
      3340        28  PMPE      H5R            18.8379999497       -7.9374313241        9.4917956167  MEMB      28              0.0000000000
      3341        28  PMPE      H5S            20.6369172169       -8.3064975654        9.6097753520  MEMB      28              0.0000000000
      3342        28  PMPE      C26            20.2222007648       -6.4475776505        8.6220535132  MEMB      28              0.0000000000
      3343        28  PMPE      H6R            21.0137020111       -5.7848911518        9.0327764129  MEMB      28              0.0000000000
      3344        28  PMPE      H6S            19.2936591655       -5.8492195192        8.5033137661  MEMB      28              0.0000000000
      3345        28  PMPE      C27            20.7052034084       -7.0053212576        7.3162466493  MEMB      28              0.0000000000
      3346        28  PMPE      H7R            21.4939971003       -7.7855343149        7.3744972242  MEMB      28              0.0000000000
      3347        28  PMPE      H7S            21.0338076100       -6.1194953231        6.7317355059  MEMB      28              0.0000000000
      3348        28  PMPE      C28            19.6788136865       -7.7577665605        6.3682322006  MEMB      28              0.0000000000
      3349        28  PMPE      H8R            18.6795181677       -7.2760824457        6.3073246714  MEMB      28              0.0000000000
      3350        28  PMPE      H8S            19.4424216215       -8.7929070865        6.6952239927  MEMB      28              0.0000000000
      3351        28  PMPE      C29            20.2478232127       -7.8704395941        4.9278781500  MEMB      28              0.0000000000
      3352        28  PMPE      H9R            21.3069088762       -8.1970678676        4.8505957957  MEMB      28              0.0000000000
      3353        28  PMPE      C217           20.0900875508       -6.6336332532        4.1091747504  MEMB      28              0.0000000000
      3354        28  PMPE      H17R           20.9925245534       -6.4139676081        3.5521797137  MEMB      28              0.0000000000
      3355        28  PMPE      H17S           19.3588221044       -5.8696471683        4.3425523614  MEMB      28              0.0000000000
      3356        28  PMPE      C210           19.3886258621       -7.9682045182        3.7236528215  MEMB      28              0.0000000000
      3357        28  PMPE      H10R           19.9074983271       -8.2113691393        2.7718308421  MEMB      28              0.0000000000
      3358        28  PMPE      C211           17.8041315285       -7.9589348810        3.7110642806  MEMB      28              0.0000000000
      3359        28  PMPE      H11R           17.5153127765       -7.0010534153        4.1941467513  MEMB      28              0.0000000000
      3360        28  PMPE      H11S           17.4477460148       -8.7716684670        4.3794765439  MEMB      28              0.0000000000
      3361        28  PMPE      C212           17.1024704342       -8.2325218460        2.3732294520  MEMB      28              0.0000000000
      3362        28  PMPE      H12R           16.0230145973       -8.1777846218        2.6303293953  MEMB      28              0.0000000000
      3363        28  PMPE      H12S           17.2856331502       -9.2706665994        2.0224758687  MEMB      28              0.0000000000
      3364        28  PMPE      C213           17.3703777166       -7.1409288605        1.2634152781  MEMB      28              0.0000000000
      3365        28  PMPE      H13R           18.4667362611       -6.9728950401        1.1995131675  MEMB      28              0.0000000000
      3366        28  PMPE      H13S           16.8719461182       -6.2076595782        1.6023760603  MEMB      28              0.0000000000
      3367        28  PMPE      C214           16.6502687269       -7.2750430313       -0.1279148698  MEMB      28              0.0000000000
      3368        28  PMPE      H14R           16.6909605802       -6.2887100887       -0.6376328265  MEMB      28              0.0000000000
      3369        28  PMPE      H14S           15.5781333800       -7.5662213552       -0.1200250630  MEMB      28              0.0000000000
      3370        28  PMPE      C215           17.3749088689       -8.1920019917       -1.1507673999  MEMB      28              0.0000000000
      3371        28  PMPE      H15R           17.6178669759       -9.1469448949       -0.6375659605  MEMB      28              0.0000000000
      3372        28  PMPE      H15S           18.2918953801       -7.6494831997       -1.4656170251  MEMB      28              0.0000000000
      3373        28  PMPE      C216           16.5538460777       -8.5037458546       -2.3432289311  MEMB      28              0.0000000000
      3374        28  PMPE      H16R           16.1497830916       -7.5918386124       -2.8325953579  MEMB      28              0.0000000000
      3375        28  PMPE      H16S           17.2137431090       -9.0121618588       -3.0783273154  MEMB      28              0.0000000000
      3376        28  PMPE      H16T           15.7539840679       -9.2279096749       -2.0784098866  MEMB      28              0.0000000000
      3377        28  PMPE      C33            23.9839457622       -9.7905742813        9.3793217726  MEMB      28              0.0000000000
      3378        28  PMPE      H3X            24.7898652045       -9.1124162640        9.7327568242  MEMB      28              0.0000000000
      3379        28  PMPE      H3Y            23.6846849226       -9.4347648295        8.3702803436  MEMB      28              0.0000000000
      3380        28  PMPE      C34            24.5417346428      -11.1955555712        9.1626184406  MEMB      28              0.0000000000
      3381        28  PMPE      H4X            25.1783299229      -11.5706944170        9.9922806989  MEMB      28              0.0000000000
      3382        28  PMPE      H4Y            25.3784759940      -11.0770212996        8.4414148469  MEMB      28              0.0000000000
      3383        28  PMPE      C35            23.6012221403      -12.3016321940        8.7262520626  MEMB      28              0.0000000000
      3384        28  PMPE      H5X            23.0379843079      -12.4905204669        9.6650834082  MEMB      28              0.0000000000
      3385        28  PMPE      H5Y            24.2363973610      -13.1617980909        8.4246101014  MEMB      28              0.0000000000
      3386        28  PMPE      C36            22.6509362966      -11.9125184137        7.5675921364  MEMB      28              0.0000000000
      3387        28  PMPE      H6X            23.2240853845      -11.4584987384        6.7311185602  MEMB      28              0.0000000000
      3388        28  PMPE      H6Y            22.1141547064      -11.0694470881        8.0527905432  MEMB      28              0.0000000000
      3389        28  PMPE      C37            21.6605994662      -13.0229730072        7.1836691504  MEMB      28              0.0000000000
      3390        28  PMPE      H7X            20.8884818833      -13.1251536398        7.9759531246  MEMB      28              0.0000000000
      3391        28  PMPE      H7Y            22.1787095932      -13.9891952255        7.0039538663  MEMB      28              0.0000000000
      3392        28  PMPE      C38            20.8702858110      -12.8271386368        5.8367469162  MEMB      28              0.0000000000
      3393        28  PMPE      H8X            20.2618547271      -11.8996003412        5.8984344174  MEMB      28              0.0000000000
      3394        28  PMPE      H8Y            20.2101806465      -13.7197861439        5.7947684320  MEMB      28              0.0000000000
      3395        28  PMPE      C39            21.8252179949      -12.7998837577        4.6308379012  MEMB      28              0.0000000000
      3396        28  PMPE      H9X            22.4823094475      -13.6901302704        4.7309012231  MEMB      28              0.0000000000
      3397        28  PMPE      H9Y            22.4179042241      -11.8613560622        4.5838310102  MEMB      28              0.0000000000
      3398        28  PMPE      C310           21.1382800236      -12.9204431965        3.2444366944  MEMB      28              0.0000000000
      3399        28  PMPE      H10X           20.7367286039      -13.9556990961        3.2808087444  MEMB      28              0.0000000000
      3400        28  PMPE      H10Y           22.0587497126      -12.9369287306        2.6225171788  MEMB      28              0.0000000000
      3401        28  PMPE      C311           20.1138185226      -11.8444476311        2.9103143286  MEMB      28              0.0000000000
      3402        28  PMPE      H11X           20.3765444087      -10.8784722087        3.3921722422  MEMB      28              0.0000000000
      3403        28  PMPE      H11Y           19.1669574841      -12.1748422018        3.3884512227  MEMB      28              0.0000000000
      3404        28  PMPE      C312           20.0181032541      -11.5665773741        1.4164312731  MEMB      28              0.0000000000
      3405        28  PMPE      H12X           19.3260128946      -10.7143308757        1.2461137708  MEMB      28              0.0000000000
      3406        28  PMPE      H12Y           19.6170163309      -12.4863963678        0.9395839036  MEMB      28              0.0000000000
      3407        28  PMPE      C313           21.3618745125      -11.1379935034        0.6453443907  MEMB      28              0.0000000000
      3408        28  PMPE      H13X           21.7691565125      -12.0896515478        0.2418737833  MEMB      28              0.0000000000
      3409        28  PMPE      H13Y           22.0536842531      -10.7798307617        1.4374549512  MEMB      28              0.0000000000
      3410        28  PMPE      C314           21.1066543731      -10.0470551773       -0.3570192590  MEMB      28              0.0000000000
      3411        28  PMPE      H14X           21.1856110582       -9.0789446480        0.1822839026  MEMB      28              0.0000000000
      3412        28  PMPE      H14Y           20.1736651462      -10.2347260668       -0.9302831379  MEMB      28              0.0000000000
      3413        28  PMPE      C315           22.1958327665       -9.9040121460       -1.5120665526  MEMB      28              0.0000000000
      3414        28  PMPE      H15X           23.1400673735       -9.4766512899       -1.1119353384  MEMB      28              0.0000000000
      3415        28  PMPE      H15Y           21.6824376262       -9.1756140562       -2.1755303197  MEMB      28              0.0000000000
      3416        28  PMPE      C316           22.6370925110      -11.1859752456       -2.1978109488  MEMB      28              0.0000000000
      3417        28  PMPE      H16X           23.4110353392      -11.6937232063       -1.5833800155  MEMB      28              0.0000000000
      3418        28  PMPE      H16Y           23.0705880292      -10.8673260825       -3.1698521821  MEMB      28              0.0000000000
      3419        28  PMPE      H16Z           21.6732630463      -11.6875547222       -2.4296986949  MEMB      28              0.0000000000
      3420        29  PMPG      C13            10.3853311239       20.2161126071       21.0139723665  MEMB      29              0.0000000000
      3421        29  PMPG      H13A           10.4852512821       19.1518053875       21.3166059370  MEMB      29              0.0000000000
      3422        29  PMPG      H13B            9.6537914901       20.7458121371       21.6609570851  MEMB      29              0.0000000000
      3423        29  PMPG      OC3             9.7744033079       20.1910972202       19.7730933673  MEMB      29              0.0000000000
      3424        29  PMPG      HO3             9.9763649591       19.2825892678       19.5376688153  MEMB      29              0.0000000000
      3425        29  PMPG      C12            11.8209442181       20.8564132739       20.8830471489  MEMB      29              0.0000000000
      3426        29  PMPG      H12A           12.2454661542       20.9305882961       21.9111805215  MEMB      29              0.0000000000
      3427        29  PMPG      OC2            11.7235146897       22.1779697302       20.3500960162  MEMB      29              0.0000000000
      3428        29  PMPG      HO2            12.6613061717       22.4200553237       20.1868215785  MEMB      29              0.0000000000
      3429        29  PMPG      C11            12.8535138423       20.0490447205       20.0335819722  MEMB      29              0.0000000000
      3430        29  PMPG      H11A           12.9129424372       19.0119127988       20.4274686691  MEMB      29              0.0000000000
      3431        29  PMPG      H11B           13.8345618990       20.5419225339       20.2036909620  MEMB      29              0.0000000000
      3432        29  PMPG      P              13.4605208219       20.4057207798       17.5830108431  MEMB      29              0.0000000000
      3433        29  PMPG      O13            14.4852934258       19.3188368110       17.2915453850  MEMB      29              0.0000000000
      3434        29  PMPG      O14            13.9395008722       21.7377835660       17.9080107878  MEMB      29              0.0000000000
      3435        29  PMPG      O11            12.4034421670       20.5551789998       16.4518026467  MEMB      29              0.0000000000
      3436        29  PMPG      O12            12.4385465340       19.9514342907       18.7118394664  MEMB      29              0.0000000000
      3437        29  PMPG      C1             11.6563217448       19.4616253423       15.9704239538  MEMB      29              0.0000000000
      3438        29  PMPG      HA             10.7953405924       19.9009414619       15.4226706483  MEMB      29              0.0000000000
      3439        29  PMPG      HB             11.2422438509       18.7123369296       16.6785393435  MEMB      29              0.0000000000
      3440        29  PMPG      C2             12.3848951329       18.7015185000       14.8437308200  MEMB      29              0.0000000000
      3441        29  PMPG      HS             13.1786685096       18.0030410381       15.1848672231  MEMB      29              0.0000000000
      3442        29  PMPG      O21            13.0913845472       19.6640591746       14.0826433001  MEMB      29              0.0000000000
      3443        29  PMPG      C21            14.0548670983       19.2288430529       13.2605100848  MEMB      29              0.0000000000
      3444        29  PMPG      O22            14.5118364124       18.1199023573       13.1571956185  MEMB      29              0.0000000000
      3445        29  PMPG      C22            14.4922971258       20.4187378502       12.4209356161  MEMB      29              0.0000000000
      3446        29  PMPG      H2R            14.3499084913       21.4303236492       12.8576742157  MEMB      29              0.0000000000
      3447        29  PMPG      H2S            14.0487758043       20.2580672249       11.4150554177  MEMB      29              0.0000000000
      3448        29  PMPG      C3             11.4798298264       17.9689101547       13.8855502902  MEMB      29              0.0000000000
      3449        29  PMPG      HX             10.6987133667       17.3008966360       14.3073747527  MEMB      29              0.0000000000
      3450        29  PMPG      HY             12.1750965210       17.5053266675       13.1534193954  MEMB      29              0.0000000000
      3451        29  PMPG      O31            10.6235543491       18.8489087365       13.1212406061  MEMB      29              0.0000000000
      3452        29  PMPG      C31            10.3213787680       18.5479823793       11.8991343998  MEMB      29              0.0000000000
      3453        29  PMPG      O32            10.5226685272       17.4436285116       11.3653364883  MEMB      29              0.0000000000
      3454        29  PMPG      C32             9.7512427105       19.7795901339       11.2608994939  MEMB      29              0.0000000000
      3455        29  PMPG      H2X             8.8360234397       20.0387798999       11.8349341714  MEMB      29              0.0000000000
      3456        29  PMPG      H2Y             9.4461018320       19.6503989687       10.2004663729  MEMB      29              0.0000000000
      3457        29  PMPG      C23            16.0248712564       20.3589065243       12.1089978165  MEMB      29              0.0000000000
      3458        29  PMPG      H3R            16.2975918979       19.3984229168       11.6217449333  MEMB      29              0.0000000000
      3459        29  PMPG      H3S            16.5020088449       20.3959607488       13.1116381302  MEMB      29              0.0000000000
      3460        29  PMPG      C24            16.6763194367       21.6877086949       11.4333504278  MEMB      29              0.0000000000
      3461        29  PMPG      H4R            17.7628703065       21.4771234729       11.5302118454  MEMB      29              0.0000000000
      3462        29  PMPG      H4S            16.3680875768       22.6535476300       11.8877395701  MEMB      29              0.0000000000
      3463        29  PMPG      C25            16.3976533615       21.8183306477        9.8994304219  MEMB      29              0.0000000000
      3464        29  PMPG      H5R            16.8331859940       22.7674852790        9.5203027465  MEMB      29              0.0000000000
      3465        29  PMPG      H5S            15.3010479752       21.9614772355        9.7931914704  MEMB      29              0.0000000000
      3466        29  PMPG      C26            16.8993352678       20.7757093184        8.9969218216  MEMB      29              0.0000000000
      3467        29  PMPG      H6R            16.9112655442       19.7860871224        9.5017253682  MEMB      29              0.0000000000
      3468        29  PMPG      H6S            17.9571213643       20.9647838948        8.7146810654  MEMB      29              0.0000000000
      3469        29  PMPG      C27            16.1290486225       20.6047746320        7.6257384805  MEMB      29              0.0000000000
      3470        29  PMPG      H7R            16.9057895530       20.2455981167        6.9172291785  MEMB      29              0.0000000000
      3471        29  PMPG      H7S            15.9743314333       21.6499744403        7.2823137209  MEMB      29              0.0000000000
      3472        29  PMPG      C28            14.8204064222       19.9489752920        7.5892559087  MEMB      29              0.0000000000
      3473        29  PMPG      H8R            14.0807614992       20.2657840752        6.8231755725  MEMB      29              0.0000000000
      3474        29  PMPG      H8S            14.3067450320       20.2299223737        8.5334709421  MEMB      29              0.0000000000
      3475        29  PMPG      C29            14.9039558229       18.3933691274        7.7868270788  MEMB      29              0.0000000000
      3476        29  PMPG      H9R            15.5584786857       17.7129734175        7.2011796738  MEMB      29              0.0000000000
      3477        29  PMPG      C217           14.5975921696       17.9448712202        9.2861465052  MEMB      29              0.0000000000
      3478        29  PMPG      H17R           15.2813923269       17.1685119683        9.6064152877  MEMB      29              0.0000000000
      3479        29  PMPG      H17S           14.1692053300       18.7680651084        9.8444705145  MEMB      29              0.0000000000
      3480        29  PMPG      C210           13.6439784886       17.5457976701        8.2037875779  MEMB      29              0.0000000000
      3481        29  PMPG      H10R           13.7111541183       16.4559959804        7.9985054527  MEMB      29              0.0000000000
      3482        29  PMPG      C211           12.3218245009       18.3082862381        8.0078299950  MEMB      29              0.0000000000
      3483        29  PMPG      H11R           11.5351076632       17.9381234033        8.6994783069  MEMB      29              0.0000000000
      3484        29  PMPG      H11S           12.4836454583       19.3698717808        8.2927348965  MEMB      29              0.0000000000
      3485        29  PMPG      C212           11.6651611502       18.2316612598        6.6157891877  MEMB      29              0.0000000000
      3486        29  PMPG      H12R           11.4019260749       17.1856747556        6.3494430853  MEMB      29              0.0000000000
      3487        29  PMPG      H12S           12.4475260428       18.4175070598        5.8491812301  MEMB      29              0.0000000000
      3488        29  PMPG      C213           10.4855125938       19.1587253798        6.3023968265  MEMB      29              0.0000000000
      3489        29  PMPG      H13R           10.8783184596       20.1605538404        6.5787374433  MEMB      29              0.0000000000
      3490        29  PMPG      H13S            9.5932059521       19.0532648974        6.9558404429  MEMB      29              0.0000000000
      3491        29  PMPG      C214           10.1460810603       19.0863796840        4.8005236022  MEMB      29              0.0000000000
      3492        29  PMPG      H14R            9.9570422586       18.0220159541        4.5441739868  MEMB      29              0.0000000000
      3493        29  PMPG      H14S           11.0397498863       19.2897157442        4.1725658693  MEMB      29              0.0000000000
      3494        29  PMPG      C215            9.0062791976       20.0471391018        4.3877441512  MEMB      29              0.0000000000
      3495        29  PMPG      H15R            9.3788908047       21.0854478976        4.2558486051  MEMB      29              0.0000000000
      3496        29  PMPG      H15S            8.1371285526       20.0801827441        5.0789800205  MEMB      29              0.0000000000
      3497        29  PMPG      C216            8.2834535292       19.6638470818        3.0319884741  MEMB      29              0.0000000000
      3498        29  PMPG      H16R            7.6010277135       20.4685379118        2.6840103300  MEMB      29              0.0000000000
      3499        29  PMPG      H16S            7.7275811584       18.7113996213        3.1667872029  MEMB      29              0.0000000000
      3500        29  PMPG      H16T            8.9628879999       19.4406350086        2.1817722545  MEMB      29              0.0000000000
      3501        29  PMPG      C33            10.7837603663       20.8656472962       11.3279203562  MEMB      29              0.0000000000
      3502        29  PMPG      H3X            11.7821919058       20.4841155382       11.0247885127  MEMB      29              0.0000000000
      3503        29  PMPG      H3Y            10.7332755876       21.1676256826       12.3959005609  MEMB      29              0.0000000000
      3504        29  PMPG      C34            10.4212359080       22.1173819761       10.4894761939  MEMB      29              0.0000000000
      3505        29  PMPG      H4X            10.9302506476       22.9872372444       10.9569982856  MEMB      29              0.0000000000
      3506        29  PMPG      H4Y             9.3131778852       22.1569946737       10.5598985306  MEMB      29              0.0000000000
      3507        29  PMPG      C35            10.7893458237       22.0238410657        9.0138868811  MEMB      29              0.0000000000
      3508        29  PMPG      H5X             9.9632182959       21.3889906736        8.6281409208  MEMB      29              0.0000000000
      3509        29  PMPG      H5Y            11.8244866312       21.6404117020        8.8882426852  MEMB      29              0.0000000000
      3510        29  PMPG      C36            10.5990147654       23.3595198182        8.2906875467  MEMB      29              0.0000000000
      3511        29  PMPG      H6X            11.1262465619       24.1870602076        8.8117671601  MEMB      29              0.0000000000
      3512        29  PMPG      H6Y             9.5196515248       23.6177035767        8.2393372768  MEMB      29              0.0000000000
      3513        29  PMPG      C37            11.1053278194       23.3262827417        6.8940820832  MEMB      29              0.0000000000
      3514        29  PMPG      H7X            10.6499230971       24.1360097777        6.2847631864  MEMB      29              0.0000000000
      3515        29  PMPG      H7Y            10.8787894634       22.3449145478        6.4251281950  MEMB      29              0.0000000000
      3516        29  PMPG      C38            12.6845798782       23.4959907251        6.7793440301  MEMB      29              0.0000000000
      3517        29  PMPG      H8X            13.2295109582       22.6599339538        7.2675863146  MEMB      29              0.0000000000
      3518        29  PMPG      H8Y            13.0300035954       24.4426545279        7.2471382876  MEMB      29              0.0000000000
      3519        29  PMPG      C39            13.0789199542       23.5168626130        5.2469402810  MEMB      29              0.0000000000
      3520        29  PMPG      H9X            14.1593239505       23.7338303105        5.1056156643  MEMB      29              0.0000000000
      3521        29  PMPG      H9Y            12.5112228690       24.3782146395        4.8344917111  MEMB      29              0.0000000000
      3522        29  PMPG      C310           12.7293450893       22.2442476726        4.5602582291  MEMB      29              0.0000000000
      3523        29  PMPG      H10X           11.6596492088       22.0136890563        4.7523898989  MEMB      29              0.0000000000
      3524        29  PMPG      H10Y           13.2749729822       21.3545384847        4.9410845188  MEMB      29              0.0000000000
      3525        29  PMPG      C311           12.9170456330       22.3723181933        3.0289508076  MEMB      29              0.0000000000
      3526        29  PMPG      H11X           13.9771077016       22.5259002797        2.7339899868  MEMB      29              0.0000000000
      3527        29  PMPG      H11Y           12.4442422523       23.3508432169        2.7981549968  MEMB      29              0.0000000000
      3528        29  PMPG      C312           12.1999537959       21.2591644901        2.2272017214  MEMB      29              0.0000000000
      3529        29  PMPG      H12X           11.1272121668       21.1569514805        2.4975697391  MEMB      29              0.0000000000
      3530        29  PMPG      H12Y           12.6855955359       20.2777351842        2.4150033888  MEMB      29              0.0000000000
      3531        29  PMPG      C313           12.3601619469       21.4609736015        0.7837903306  MEMB      29              0.0000000000
      3532        29  PMPG      H13X           13.4195423133       21.4434110785        0.4495362595  MEMB      29              0.0000000000
      3533        29  PMPG      H13Y           11.9254707121       22.4230293335        0.4376513390  MEMB      29              0.0000000000
      3534        29  PMPG      C314           11.6268090302       20.3933614424       -0.1630874908  MEMB      29              0.0000000000
      3535        29  PMPG      H14X           10.5754211629       20.7029688291        0.0187036997  MEMB      29              0.0000000000
      3536        29  PMPG      H14Y           11.8948602493       19.3715939842        0.1810937234  MEMB      29              0.0000000000
      3537        29  PMPG      C315           11.8487923854       20.7513971825       -1.6601905508  MEMB      29              0.0000000000
      3538        29  PMPG      H15X           11.5388361667       19.8469124277       -2.2260131125  MEMB      29              0.0000000000
      3539        29  PMPG      H15Y           12.9405107289       20.9133652497       -1.7876207384  MEMB      29              0.0000000000
      3540        29  PMPG      C316           10.9615046893       21.9175531933       -2.1572334443  MEMB      29              0.0000000000
      3541        29  PMPG      H16X            9.9289286615       21.5142517184       -2.0833708852  MEMB      29              0.0000000000
      3542        29  PMPG      H16Y           11.1366328042       22.1185537130       -3.2357732915  MEMB      29              0.0000000000
      3543        29  PMPG      H16Z           11.1365275533       22.8064597588       -1.5141666776  MEMB      29              0.0000000000
      3544        30  PMPE      N             -24.7249177887        7.9149744564       20.8440873361  MEMB      30              0.0000000000
      3545        30  PMPE      HN1           -23.8649535142        7.5549230066       21.3049821373  MEMB      30              0.0000000000
      3546        30  PMPE      HN2           -24.5931424336        8.2601880585       19.8719439080  MEMB      30              0.0000000000
      3547        30  PMPE      HN3           -25.2629567941        8.5572873069       21.4601622309  MEMB      30              0.0000000000
      3548        30  PMPE      C12           -25.5038052268        6.6427642839       20.6545559896  MEMB      30              0.0000000000
      3549        30  PMPE      H12A          -26.5742321174        6.9311179827       20.5813456825  MEMB      30              0.0000000000
      3550        30  PMPE      H12B          -25.4400395184        6.0297504651       21.5789308078  MEMB      30              0.0000000000
      3551        30  PMPE      C11           -25.2003861578        5.8453239929       19.3337678069  MEMB      30              0.0000000000
      3552        30  PMPE      H11A          -25.4304780641        6.4367535290       18.4218523800  MEMB      30              0.0000000000
      3553        30  PMPE      H11B          -25.9362662230        5.0130655502       19.3459026282  MEMB      30              0.0000000000
      3554        30  PMPE      P             -22.9050709203        5.0751396481       18.1950888184  MEMB      30              0.0000000000
      3555        30  PMPE      O13           -21.7323745103        4.4260440148       18.8369604838  MEMB      30              0.0000000000
      3556        30  PMPE      O14           -22.5826067980        6.2971814981       17.3536613647  MEMB      30              0.0000000000
      3557        30  PMPE      O11           -23.8140839335        3.9974233239       17.3982750048  MEMB      30              0.0000000000
      3558        30  PMPE      O12           -23.8253090630        5.5250940629       19.3836031970  MEMB      30              0.0000000000
      3559        30  PMPE      C1            -23.4856698591        3.3552214651       16.1769248010  MEMB      30              0.0000000000
      3560        30  PMPE      HA            -24.2060348724        2.5179380751       16.0571256716  MEMB      30              0.0000000000
      3561        30  PMPE      HB            -22.5589430568        2.7616298579       16.3290668206  MEMB      30              0.0000000000
      3562        30  PMPE      C2            -23.4583512384        4.3208082715       14.9448279557  MEMB      30              0.0000000000
      3563        30  PMPE      HS            -22.5053655505        4.8827803492       14.8432078709  MEMB      30              0.0000000000
      3564        30  PMPE      O21           -24.5644001931        5.2317766044       15.1446005596  MEMB      30              0.0000000000
      3565        30  PMPE      C21           -24.4595673579        6.5332366914       14.7249522121  MEMB      30              0.0000000000
      3566        30  PMPE      O22           -23.4448200512        7.1910556867       14.5513367418  MEMB      30              0.0000000000
      3567        30  PMPE      C22           -25.9503646020        7.0124762311       14.6775556518  MEMB      30              0.0000000000
      3568        30  PMPE      H2R           -26.1644887160        7.7706249174       15.4609345477  MEMB      30              0.0000000000
      3569        30  PMPE      H2S           -26.6818048751        6.1781450573       14.7341906735  MEMB      30              0.0000000000
      3570        30  PMPE      C3            -23.5495927059        3.6306732997       13.5521818024  MEMB      30              0.0000000000
      3571        30  PMPE      HX            -24.3778953842        2.8916549064       13.5978704082  MEMB      30              0.0000000000
      3572        30  PMPE      HY            -22.6345084792        3.0085347798       13.4527558539  MEMB      30              0.0000000000
      3573        30  PMPE      O31           -23.6588887438        4.5522642227       12.4934951742  MEMB      30              0.0000000000
      3574        30  PMPE      C31           -22.5184312296        4.9646680592       11.9875782305  MEMB      30              0.0000000000
      3575        30  PMPE      O32           -21.3867028048        4.5952338199       12.4119643980  MEMB      30              0.0000000000
      3576        30  PMPE      C32           -22.8616216923        6.0415646983       10.9843880683  MEMB      30              0.0000000000
      3577        30  PMPE      H2X           -23.5572107107        6.7251727964       11.5165129178  MEMB      30              0.0000000000
      3578        30  PMPE      H2Y           -23.4961400438        5.7272834554       10.1282725400  MEMB      30              0.0000000000
      3579        30  PMPE      C23           -26.1981585323        7.6873346866       13.3036725670  MEMB      30              0.0000000000
      3580        30  PMPE      H3R           -25.4204085719        8.4026156084       12.9604536323  MEMB      30              0.0000000000
      3581        30  PMPE      H3S           -27.1183567803        8.3049011834       13.3822099321  MEMB      30              0.0000000000
      3582        30  PMPE      C24           -26.4064195352        6.6970916650       12.1598487102  MEMB      30              0.0000000000
      3583        30  PMPE      H4R           -27.3305526641        6.0994307157       12.3118367524  MEMB      30              0.0000000000
      3584        30  PMPE      H4S           -25.4535299005        6.1447429196       12.0141323872  MEMB      30              0.0000000000
      3585        30  PMPE      C25           -26.6272374943        7.2798665659       10.7324959047  MEMB      30              0.0000000000
      3586        30  PMPE      H5R           -25.7841291251        7.8418343985       10.2767749325  MEMB      30              0.0000000000
      3587        30  PMPE      H5S           -27.4480357362        8.0084318915       10.9051337929  MEMB      30              0.0000000000
      3588        30  PMPE      C26           -27.1121546175        6.3507736739        9.7048077758  MEMB      30              0.0000000000
      3589        30  PMPE      H6R           -28.0309709260        5.8074463936       10.0128548259  MEMB      30              0.0000000000
      3590        30  PMPE      H6S           -26.3722839184        5.5936490550        9.3676511338  MEMB      30              0.0000000000
      3591        30  PMPE      C27           -27.3103284641        7.1260343851        8.3951157640  MEMB      30              0.0000000000
      3592        30  PMPE      H7R           -26.5023610834        7.8781001049        8.2689934221  MEMB      30              0.0000000000
      3593        30  PMPE      H7S           -28.2913136025        7.6468273592        8.4227456796  MEMB      30              0.0000000000
      3594        30  PMPE      C28           -27.3136718282        6.3645007294        7.0557447823  MEMB      30              0.0000000000
      3595        30  PMPE      H8R           -27.8975610892        6.9049965597        6.2803357943  MEMB      30              0.0000000000
      3596        30  PMPE      H8S           -27.7806993903        5.3615319582        7.1570368598  MEMB      30              0.0000000000
      3597        30  PMPE      C29           -25.9370695721        6.0814365348        6.4190734837  MEMB      30              0.0000000000
      3598        30  PMPE      H9R           -25.1273013215        5.5890063666        6.9988224388  MEMB      30              0.0000000000
      3599        30  PMPE      C217          -25.3599345377        7.2895825138        5.5382696510  MEMB      30              0.0000000000
      3600        30  PMPE      H17R          -24.3108171821        7.5111049678        5.6904838567  MEMB      30              0.0000000000
      3601        30  PMPE      H17S          -26.1408920505        8.0357781233        5.4596156127  MEMB      30              0.0000000000
      3602        30  PMPE      C210          -25.7645579887        5.9802033395        4.9439422940  MEMB      30              0.0000000000
      3603        30  PMPE      H10R          -24.8218987597        5.4507573650        4.6882047029  MEMB      30              0.0000000000
      3604        30  PMPE      C211          -27.0313529037        5.9367888554        3.9811829698  MEMB      30              0.0000000000
      3605        30  PMPE      H11R          -26.6258373459        6.2369722296        2.9913516927  MEMB      30              0.0000000000
      3606        30  PMPE      H11S          -27.8348610598        6.5732703819        4.4096529488  MEMB      30              0.0000000000
      3607        30  PMPE      C212          -27.6241592197        4.5476487140        3.9736898349  MEMB      30              0.0000000000
      3608        30  PMPE      H12R          -27.5511474289        4.1735110898        5.0172470108  MEMB      30              0.0000000000
      3609        30  PMPE      H12S          -26.9551938303        3.9549277682        3.3137743600  MEMB      30              0.0000000000
      3610        30  PMPE      C213          -29.0220563707        4.2882369240        3.4252868158  MEMB      30              0.0000000000
      3611        30  PMPE      H13R          -29.7186722534        5.0674404051        3.8019683888  MEMB      30              0.0000000000
      3612        30  PMPE      H13S          -29.4433443490        3.2976087166        3.7000477656  MEMB      30              0.0000000000
      3613        30  PMPE      C214          -29.2597080909        4.3182019971        1.8893680310  MEMB      30              0.0000000000
      3614        30  PMPE      H14R          -29.0601106351        5.3198721186        1.4521742803  MEMB      30              0.0000000000
      3615        30  PMPE      H14S          -30.3546644847        4.1804706701        1.7612222189  MEMB      30              0.0000000000
      3616        30  PMPE      C215          -28.5541010060        3.2098997247        1.2256782928  MEMB      30              0.0000000000
      3617        30  PMPE      H15R          -28.8200141144        2.2703204667        1.7555850892  MEMB      30              0.0000000000
      3618        30  PMPE      H15S          -27.4618376524        3.2401317918        1.4265941616  MEMB      30              0.0000000000
      3619        30  PMPE      C216          -28.7575945729        3.0603703574       -0.3206020284  MEMB      30              0.0000000000
      3620        30  PMPE      H16R          -29.8684031528        3.0398349528       -0.3225188839  MEMB      30              0.0000000000
      3621        30  PMPE      H16S          -28.4958265241        3.9738486326       -0.8962373694  MEMB      30              0.0000000000
      3622        30  PMPE      H16T          -28.4525539041        2.1443473961       -0.8703064101  MEMB      30              0.0000000000
      3623        30  PMPE      C33           -21.6511388410        6.8743027813       10.4837962751  MEMB      30              0.0000000000
      3624        30  PMPE      H3X           -20.7935259260        6.2820713866       10.0989806349  MEMB      30              0.0000000000
      3625        30  PMPE      H3Y           -21.2482334823        7.3793445322       11.3876331947  MEMB      30              0.0000000000
      3626        30  PMPE      C34           -22.1557455242        8.0419283803        9.6242120187  MEMB      30              0.0000000000
      3627        30  PMPE      H4X           -21.4460451134        8.8959215596        9.6608540132  MEMB      30              0.0000000000
      3628        30  PMPE      H4Y           -23.1561771935        8.3697362672        9.9791759938  MEMB      30              0.0000000000
      3629        30  PMPE      C35           -22.3771550415        7.7354239630        8.1874753036  MEMB      30              0.0000000000
      3630        30  PMPE      H5X           -22.8753472029        8.6270232612        7.7502388602  MEMB      30              0.0000000000
      3631        30  PMPE      H5Y           -22.9849605797        6.8065580233        8.1416329840  MEMB      30              0.0000000000
      3632        30  PMPE      C36           -21.0478566901        7.8081425816        7.3318406977  MEMB      30              0.0000000000
      3633        30  PMPE      H6X           -20.4537443619        8.6889748029        7.6566274768  MEMB      30              0.0000000000
      3634        30  PMPE      H6Y           -21.1561563090        7.9606161256        6.2366949167  MEMB      30              0.0000000000
      3635        30  PMPE      C37           -20.0262462164        6.6108735398        7.4635260243  MEMB      30              0.0000000000
      3636        30  PMPE      H7X           -19.7336975543        6.5561733763        8.5339204969  MEMB      30              0.0000000000
      3637        30  PMPE      H7Y           -19.2001808959        6.8578704245        6.7628623070  MEMB      30              0.0000000000
      3638        30  PMPE      C38           -20.6149625265        5.2848106443        7.0593703724  MEMB      30              0.0000000000
      3639        30  PMPE      H8X           -21.3614891407        5.0263958993        7.8405494818  MEMB      30              0.0000000000
      3640        30  PMPE      H8Y           -19.8627040412        4.4690740018        7.0045775466  MEMB      30              0.0000000000
      3641        30  PMPE      C39           -21.2224957462        5.2547669240        5.6422746417  MEMB      30              0.0000000000
      3642        30  PMPE      H9X           -21.8671199851        6.1540726145        5.5421261040  MEMB      30              0.0000000000
      3643        30  PMPE      H9Y           -21.9194224253        4.3897802980        5.6219686370  MEMB      30              0.0000000000
      3644        30  PMPE      C310          -20.1601731491        5.2392844194        4.6440986440  MEMB      30              0.0000000000
      3645        30  PMPE      H10X          -19.5224789978        4.3302223259        4.6797802821  MEMB      30              0.0000000000
      3646        30  PMPE      H10Y          -19.5482115747        6.1191907691        4.9366551304  MEMB      30              0.0000000000
      3647        30  PMPE      C311          -20.6413503948        5.3692017836        3.2105131123  MEMB      30              0.0000000000
      3648        30  PMPE      H11X          -19.7275307366        5.5226233351        2.5975554937  MEMB      30              0.0000000000
      3649        30  PMPE      H11Y          -21.3237583987        6.2359192396        3.0784457859  MEMB      30              0.0000000000
      3650        30  PMPE      C312          -21.5695180788        4.2252901502        2.7706171547  MEMB      30              0.0000000000
      3651        30  PMPE      H12X          -22.5583177546        4.3994618587        3.2462852806  MEMB      30              0.0000000000
      3652        30  PMPE      H12Y          -21.2675139997        3.2419701504        3.1903745735  MEMB      30              0.0000000000
      3653        30  PMPE      C313          -21.6213202721        3.9733163182        1.2637329550  MEMB      30              0.0000000000
      3654        30  PMPE      H13X          -20.6103738302        3.9999962164        0.8037377021  MEMB      30              0.0000000000
      3655        30  PMPE      H13Y          -22.1056528220        4.8423041386        0.7691590413  MEMB      30              0.0000000000
      3656        30  PMPE      C314          -22.3685609603        2.6853381415        0.9186336866  MEMB      30              0.0000000000
      3657        30  PMPE      H14X          -23.4286462466        2.8703589024        1.1948727324  MEMB      30              0.0000000000
      3658        30  PMPE      H14Y          -21.9094941587        1.8381516663        1.4716736820  MEMB      30              0.0000000000
      3659        30  PMPE      C315          -22.3891192807        2.4221874930       -0.6209703058  MEMB      30              0.0000000000
      3660        30  PMPE      H15X          -22.6710043707        3.3530127600       -1.1580219852  MEMB      30              0.0000000000
      3661        30  PMPE      H15Y          -23.1897780188        1.6816833081       -0.8329118770  MEMB      30              0.0000000000
      3662        30  PMPE      C316          -21.1012689211        1.8132329769       -1.2479815403  MEMB      30              0.0000000000
      3663        30  PMPE      H16X          -20.2384319267        2.4659156775       -0.9953178227  MEMB      30              0.0000000000
      3664        30  PMPE      H16Y          -21.1567252822        1.6973478324       -2.3515283196  MEMB      30              0.0000000000
      3665        30  PMPE      H16Z          -20.9043861528        0.7968017119       -0.8449618011  MEMB      30              0.0000000000
      3666        31  PYPG      C13            21.4984097306       15.4047673448       18.9623237958  MEMB      31              0.0000000000
      3667        31  PYPG      H13A           21.2635230151       16.4904114878       18.9852599259  MEMB      31              0.0000000000
      3668        31  PYPG      H13B           22.3619926394       15.1089013270       19.5955763827  MEMB      31              0.0000000000
      3669        31  PYPG      OC3            21.8489896539       15.1706630140       17.6419997767  MEMB      31              0.0000000000
      3670        31  PYPG      HO3            21.0389208909       14.8485811205       17.2399403795  MEMB      31              0.0000000000
      3671        31  PYPG      C12            20.2513227542       14.6383473432       19.3046608397  MEMB      31              0.0000000000
      3672        31  PYPG      H12A           19.9933149055       14.8808250224       20.3617396282  MEMB      31              0.0000000000
      3673        31  PYPG      OC2            20.4986960435       13.2340386976       19.2224138136  MEMB      31              0.0000000000
      3674        31  PYPG      HO2            19.6028481388       12.8453432426       19.3277191550  MEMB      31              0.0000000000
      3675        31  PYPG      C11            19.0593223011       15.1004007347       18.3432277896  MEMB      31              0.0000000000
      3676        31  PYPG      H11A           18.1640736264       14.4436386339       18.3043127614  MEMB      31              0.0000000000
      3677        31  PYPG      H11B           19.5762569375       14.9496326520       17.3714415053  MEMB      31              0.0000000000
      3678        31  PYPG      P              17.4980795239       16.8615593333       19.3346547874  MEMB      31              0.0000000000
      3679        31  PYPG      O13            17.7460407662       18.1959702668       20.0256483665  MEMB      31              0.0000000000
      3680        31  PYPG      O14            17.1642204733       15.7285086503       20.3063656912  MEMB      31              0.0000000000
      3681        31  PYPG      O11            16.4043791635       17.0695503244       18.2884921422  MEMB      31              0.0000000000
      3682        31  PYPG      O12            18.8051305801       16.4862522944       18.5702130452  MEMB      31              0.0000000000
      3683        31  PYPG      C1             15.4833573383       16.0855982039       18.0694082014  MEMB      31              0.0000000000
      3684        31  PYPG      HA             14.5848607584       16.3387204706       18.6718650275  MEMB      31              0.0000000000
      3685        31  PYPG      HB             15.9266395176       15.0883808954       18.2776848165  MEMB      31              0.0000000000
      3686        31  PYPG      C2             15.0765560855       16.0021744024       16.5205890057  MEMB      31              0.0000000000
      3687        31  PYPG      HS             14.1726480333       15.3562140527       16.5181174141  MEMB      31              0.0000000000
      3688        31  PYPG      O21            16.1299682120       15.4280900383       15.7244443005  MEMB      31              0.0000000000
      3689        31  PYPG      C21            16.2721464081       14.0626779939       15.7779220740  MEMB      31              0.0000000000
      3690        31  PYPG      O22            15.5438685696       13.4000887138       16.4600920856  MEMB      31              0.0000000000
      3691        31  PYPG      C22            17.4824395973       13.5997129547       15.0328657258  MEMB      31              0.0000000000
      3692        31  PYPG      H2R            17.5515211748       12.4954289662       15.1333926428  MEMB      31              0.0000000000
      3693        31  PYPG      H2S            18.4104886197       13.8868701721       15.5719261600  MEMB      31              0.0000000000
      3694        31  PYPG      C3             14.7306741618       17.4556914381       16.0497680236  MEMB      31              0.0000000000
      3695        31  PYPG      HX             15.5989181546       18.0918065259       16.3251418793  MEMB      31              0.0000000000
      3696        31  PYPG      HY             13.8838926540       17.8777718517       16.6321167717  MEMB      31              0.0000000000
      3697        31  PYPG      O31            14.5719764386       17.4622398126       14.6137249809  MEMB      31              0.0000000000
      3698        31  PYPG      C31            13.3008630885       17.3797824979       14.1621070365  MEMB      31              0.0000000000
      3699        31  PYPG      O32            12.3200169101       17.3132512683       14.8677056338  MEMB      31              0.0000000000
      3700        31  PYPG      C32            13.2395490103       17.5099319376       12.6264141233  MEMB      31              0.0000000000
      3701        31  PYPG      H2X            12.3974244732       18.1474184939       12.2818015585  MEMB      31              0.0000000000
      3702        31  PYPG      H2Y            14.1631180051       18.0830590049       12.3964865453  MEMB      31              0.0000000000
      3703        31  PYPG      C23            17.5297834859       14.0940364391       13.5282066643  MEMB      31              0.0000000000
      3704        31  PYPG      H3R            16.5987544243       13.7156299121       13.0545883838  MEMB      31              0.0000000000
      3705        31  PYPG      H3S            18.4076129066       13.5982184040       13.0614082963  MEMB      31              0.0000000000
      3706        31  PYPG      C24            17.6019467040       15.6125121170       13.1577527305  MEMB      31              0.0000000000
      3707        31  PYPG      H4R            18.4948220310       16.0078279977       13.6876770054  MEMB      31              0.0000000000
      3708        31  PYPG      H4S            16.6579937125       16.1594763343       13.3677621420  MEMB      31              0.0000000000
      3709        31  PYPG      C25            17.9035428191       15.6545388799       11.6510695624  MEMB      31              0.0000000000
      3710        31  PYPG      H5R            17.0929453079       15.1086220225       11.1226498165  MEMB      31              0.0000000000
      3711        31  PYPG      H5S            18.7692491114       14.9965413883       11.4232259756  MEMB      31              0.0000000000
      3712        31  PYPG      C26            18.2249047957       17.0450979283       11.1989732915  MEMB      31              0.0000000000
      3713        31  PYPG      H6R            19.1820476031       17.3671377329       11.6621027489  MEMB      31              0.0000000000
      3714        31  PYPG      H6S            17.3485301173       17.6824842649       11.4439774584  MEMB      31              0.0000000000
      3715        31  PYPG      C27            18.4630259535       17.0899241821        9.6500647774  MEMB      31              0.0000000000
      3716        31  PYPG      H7R            19.2125973396       16.3301756708        9.3414451682  MEMB      31              0.0000000000
      3717        31  PYPG      H7S            18.9557140333       18.0404130530        9.3531638816  MEMB      31              0.0000000000
      3718        31  PYPG      C28            17.1697424384       16.9300155674        8.8879194865  MEMB      31              0.0000000000
      3719        31  PYPG      H8R            16.3959686095       17.5458307159        9.3942465717  MEMB      31              0.0000000000
      3720        31  PYPG      H8S            16.8483103081       15.8982459876        9.1457064564  MEMB      31              0.0000000000
      3721        31  PYPG      C29            17.0503616649       17.0297408638        7.3741241954  MEMB      31              0.0000000000
      3722        31  PYPG      H9R            16.9103645798       16.0170729582        6.9680398483  MEMB      31              0.0000000000
      3723        31  PYPG      C210           17.1533022430       18.0237505773        6.5115934882  MEMB      31              0.0000000000
      3724        31  PYPG      H10R           16.7951821931       17.8407249862        5.4877520058  MEMB      31              0.0000000000
      3725        31  PYPG      C211           17.4419882721       19.4148087036        6.7932385727  MEMB      31              0.0000000000
      3726        31  PYPG      H11R           18.1102427459       19.7848804329        5.9865139348  MEMB      31              0.0000000000
      3727        31  PYPG      H11S           17.9147526628       19.5933285189        7.7826544600  MEMB      31              0.0000000000
      3728        31  PYPG      C212           16.0973807678       20.2340861827        6.8188935435  MEMB      31              0.0000000000
      3729        31  PYPG      H12R           16.3899848671       21.3055524143        6.8446612119  MEMB      31              0.0000000000
      3730        31  PYPG      H12S           15.4418783864       20.1044260883        7.7064894070  MEMB      31              0.0000000000
      3731        31  PYPG      C213           15.2948735579       20.1728356498        5.4802470864  MEMB      31              0.0000000000
      3732        31  PYPG      H13R           14.6018101142       21.0356137970        5.5782159219  MEMB      31              0.0000000000
      3733        31  PYPG      H13S           14.6806665593       19.2480170784        5.4380423630  MEMB      31              0.0000000000
      3734        31  PYPG      C214           16.0839174189       20.3684373520        4.1973003816  MEMB      31              0.0000000000
      3735        31  PYPG      H14R           16.7154555325       21.2617058612        4.3910848043  MEMB      31              0.0000000000
      3736        31  PYPG      H14S           16.7300230467       19.5060058537        3.9269658401  MEMB      31              0.0000000000
      3737        31  PYPG      C215           15.2023333584       20.7171202221        2.8825670495  MEMB      31              0.0000000000
      3738        31  PYPG      H15R           14.9470783392       21.7973843724        2.9294192557  MEMB      31              0.0000000000
      3739        31  PYPG      H15S           14.3450291659       20.0337247992        3.0623486540  MEMB      31              0.0000000000
      3740        31  PYPG      C216           16.0280284419       20.2551636094        1.6410796677  MEMB      31              0.0000000000
      3741        31  PYPG      H16R           16.9969969737       20.7971859369        1.6006667257  MEMB      31              0.0000000000
      3742        31  PYPG      H16S           15.5072616906       20.4546174704        0.6801752423  MEMB      31              0.0000000000
      3743        31  PYPG      H16T           16.1161870100       19.1504957828        1.7201890429  MEMB      31              0.0000000000
      3744        31  PYPG      C33            13.4039120470       16.1545300857       11.9084806496  MEMB      31              0.0000000000
      3745        31  PYPG      H3X            12.6459334286       15.4157965963       12.2462115159  MEMB      31              0.0000000000
      3746        31  PYPG      H3Y            14.4252892896       15.9369161947       12.2876276244  MEMB      31              0.0000000000
      3747        31  PYPG      C34            13.5798458823       16.0512982167       10.4127722518  MEMB      31              0.0000000000
      3748        31  PYPG      H4X            14.2332750014       16.8805822082       10.0668830011  MEMB      31              0.0000000000
      3749        31  PYPG      H4Y            12.6206297861       16.2544676160        9.8903287675  MEMB      31              0.0000000000
      3750        31  PYPG      C35            14.1946802526       14.6842747399       10.1164596991  MEMB      31              0.0000000000
      3751        31  PYPG      H5X            13.6291343055       13.9249185503       10.6977139583  MEMB      31              0.0000000000
      3752        31  PYPG      H5Y            15.2303637252       14.5891467058       10.5071391346  MEMB      31              0.0000000000
      3753        31  PYPG      C36            14.1622887119       14.3905326632        8.5901847294  MEMB      31              0.0000000000
      3754        31  PYPG      H6X            14.6145145554       15.2879199779        8.1163608901  MEMB      31              0.0000000000
      3755        31  PYPG      H6Y            13.1219171337       14.2726233768        8.2186410641  MEMB      31              0.0000000000
      3756        31  PYPG      C37            14.9376200744       13.1662909244        8.2444664728  MEMB      31              0.0000000000
      3757        31  PYPG      H7X            16.0026218435       13.3045718937        8.5290196521  MEMB      31              0.0000000000
      3758        31  PYPG      H7Y            14.3786167794       12.3594476320        8.7648891587  MEMB      31              0.0000000000
      3759        31  PYPG      C38            14.8162647986       12.8870194562        6.7447057497  MEMB      31              0.0000000000
      3760        31  PYPG      H8X            13.8252149796       13.1266295839        6.3034248662  MEMB      31              0.0000000000
      3761        31  PYPG      H8Y            15.1944313777       11.8767373082        6.4789210490  MEMB      31              0.0000000000
      3762        31  PYPG      C39            15.5401787172       13.9710749960        5.9011962208  MEMB      31              0.0000000000
      3763        31  PYPG      H9X            16.5982183136       14.0055531724        6.2383669918  MEMB      31              0.0000000000
      3764        31  PYPG      H9Y            15.1158818166       14.9773922194        6.1052017777  MEMB      31              0.0000000000
      3765        31  PYPG      C310           15.3997570520       13.6927763172        4.4510268249  MEMB      31              0.0000000000
      3766        31  PYPG      H10X           14.4072017110       14.0033170457        4.0602342060  MEMB      31              0.0000000000
      3767        31  PYPG      H10Y           15.4638840911       12.5893271551        4.3387380063  MEMB      31              0.0000000000
      3768        31  PYPG      C311           16.4590570570       14.4243567063        3.5552289528  MEMB      31              0.0000000000
      3769        31  PYPG      H11X           16.5773342821       13.8148922947        2.6338792050  MEMB      31              0.0000000000
      3770        31  PYPG      H11Y           17.3948179840       14.3612723106        4.1507895336  MEMB      31              0.0000000000
      3771        31  PYPG      C312           16.0489045264       15.8726398058        3.4090734586  MEMB      31              0.0000000000
      3772        31  PYPG      H12X           16.0073408525       16.4085430029        4.3813907018  MEMB      31              0.0000000000
      3773        31  PYPG      H12Y           16.8966737404       16.3160700330        2.8442921659  MEMB      31              0.0000000000
      3774        31  PYPG      C313           14.8016968912       16.2432347562        2.6200896133  MEMB      31              0.0000000000
      3775        31  PYPG      H13X           13.8883816163       15.7320839996        2.9927840908  MEMB      31              0.0000000000
      3776        31  PYPG      H13Y           14.5975122516       17.3148083826        2.8307073040  MEMB      31              0.0000000000
      3777        31  PYPG      C314           15.0491417624       16.1471182664        1.1090184412  MEMB      31              0.0000000000
      3778        31  PYPG      H14X           15.5534122384       17.0939164681        0.8198725624  MEMB      31              0.0000000000
      3779        31  PYPG      H14Y           15.7089494154       15.3312063990        0.7439672586  MEMB      31              0.0000000000
      3780        31  PYPG      C315           13.7570370232       15.9603453292        0.3341055446  MEMB      31              0.0000000000
      3781        31  PYPG      H15X           13.9796873208       15.9672871758       -0.7543326664  MEMB      31              0.0000000000
      3782        31  PYPG      H15Y           13.3117504250       15.0043345671        0.6835120538  MEMB      31              0.0000000000
      3783        31  PYPG      C316           12.7399855997       17.0933624852        0.7073187500  MEMB      31              0.0000000000
      3784        31  PYPG      H16X           12.1978217371       16.7743389652        1.6230721124  MEMB      31              0.0000000000
      3785        31  PYPG      H16Y           11.9911911888       17.1289923309       -0.1126541317  MEMB      31              0.0000000000
      3786        31  PYPG      H16Z           13.2173630000       18.0869994141        0.8455843393  MEMB      31              0.0000000000
      3787        32  OYPE      N             -21.2529026980      -10.6432811758       21.4126750115  MEMB      32              0.0000000000
      3788        32  OYPE      HN1           -22.0322350360       -9.9642358363       21.2980519593  MEMB      32              0.0000000000
      3789        32  OYPE      HN2           -21.4981466627      -11.6497197033       21.3202791964  MEMB      32              0.0000000000
      3790        32  OYPE      HN3           -20.6701184070      -10.5616636435       22.2701718415  MEMB      32              0.0000000000
      3791        32  OYPE      C12           -20.2527560768      -10.4670803284       20.3720236359  MEMB      32              0.0000000000
      3792        32  OYPE      H12A          -19.5799067582      -11.3462763258       20.2792390120  MEMB      32              0.0000000000
      3793        32  OYPE      H12B          -19.6850120107       -9.5600323747       20.6707735010  MEMB      32              0.0000000000
      3794        32  OYPE      C11           -20.9584750182      -10.2618324481       19.0295116840  MEMB      32              0.0000000000
      3795        32  OYPE      H11A          -20.1283189817      -10.2701347161       18.2912074122  MEMB      32              0.0000000000
      3796        32  OYPE      H11B          -21.4878291079       -9.2868416082       19.0886558481  MEMB      32              0.0000000000
      3797        32  OYPE      P             -23.3394331158      -11.2021038321       18.2481435905  MEMB      32              0.0000000000
      3798        32  OYPE      O13           -23.2853450713      -10.2733172896       17.1010162295  MEMB      32              0.0000000000
      3799        32  OYPE      O14           -24.2428323492      -10.8463419129       19.3247349526  MEMB      32              0.0000000000
      3800        32  OYPE      O11           -23.7394324738      -12.6537452255       17.7196823183  MEMB      32              0.0000000000
      3801        32  OYPE      O12           -21.7629848265      -11.4214682114       18.7922125692  MEMB      32              0.0000000000
      3802        32  OYPE      C1            -22.8379024828      -13.6985940583       17.4699319392  MEMB      32              0.0000000000
      3803        32  OYPE      HA            -23.0071109940      -14.5480739825       18.1656855577  MEMB      32              0.0000000000
      3804        32  OYPE      HB            -21.7819940102      -13.3630231383       17.5522143179  MEMB      32              0.0000000000
      3805        32  OYPE      C2            -23.0366808532      -14.1717772680       15.9991226640  MEMB      32              0.0000000000
      3806        32  OYPE      HS            -22.5642298039      -15.1565421193       15.7957770349  MEMB      32              0.0000000000
      3807        32  OYPE      O21           -22.6849207566      -13.1856930323       14.9885683920  MEMB      32              0.0000000000
      3808        32  OYPE      C21           -21.3334687389      -12.8667357657       14.8707255076  MEMB      32              0.0000000000
      3809        32  OYPE      O22           -20.4958414054      -13.3510704563       15.6087760644  MEMB      32              0.0000000000
      3810        32  OYPE      C22           -21.1197795713      -12.0130199877       13.6954417327  MEMB      32              0.0000000000
      3811        32  OYPE      H2R           -20.4222736205      -11.1790951998       13.9243000309  MEMB      32              0.0000000000
      3812        32  OYPE      H2S           -22.1235484876      -11.6766956494       13.3583145167  MEMB      32              0.0000000000
      3813        32  OYPE      C3            -24.5434810976      -14.4977642752       15.7649204734  MEMB      32              0.0000000000
      3814        32  OYPE      HX            -25.2567704754      -13.6527758755       15.8723168894  MEMB      32              0.0000000000
      3815        32  OYPE      HY            -24.8750643180      -15.2467493669       16.5155166745  MEMB      32              0.0000000000
      3816        32  OYPE      O31           -24.5949829204      -15.1510879544       14.4822431877  MEMB      32              0.0000000000
      3817        32  OYPE      C31           -24.9690355782      -14.6036056289       13.3052612058  MEMB      32              0.0000000000
      3818        32  OYPE      O32           -25.2786254943      -13.4279366394       13.1907576273  MEMB      32              0.0000000000
      3819        32  OYPE      C32           -24.9316153123      -15.7058663556       12.2142129346  MEMB      32              0.0000000000
      3820        32  OYPE      H2X           -23.8674563228      -15.7327718617       11.8961521742  MEMB      32              0.0000000000
      3821        32  OYPE      H2Y           -25.2931849326      -16.6592242298       12.6554580226  MEMB      32              0.0000000000
      3822        32  OYPE      C23           -20.5017693785      -12.7185202194       12.4975562736  MEMB      32              0.0000000000
      3823        32  OYPE      H3R           -20.9646840954      -13.7077306654       12.2938563743  MEMB      32              0.0000000000
      3824        32  OYPE      H3S           -19.4589963740      -12.8344755333       12.8629329279  MEMB      32              0.0000000000
      3825        32  OYPE      C24           -20.7916022584      -11.9978839287       11.1108559869  MEMB      32              0.0000000000
      3826        32  OYPE      H4R           -20.1633647973      -12.6083303728       10.4274858583  MEMB      32              0.0000000000
      3827        32  OYPE      H4S           -20.3950364264      -10.9820023389       10.8986266125  MEMB      32              0.0000000000
      3828        32  OYPE      C25           -22.1573677189      -11.9962925582       10.5027565026  MEMB      32              0.0000000000
      3829        32  OYPE      H5R           -22.8540974758      -11.2692481686       10.9721130956  MEMB      32              0.0000000000
      3830        32  OYPE      H5S           -22.5117655930      -13.0490171732       10.4805355992  MEMB      32              0.0000000000
      3831        32  OYPE      C26           -22.2130074956      -11.5234309732        9.0142949959  MEMB      32              0.0000000000
      3832        32  OYPE      H6R           -21.7716865922      -12.2845489572        8.3358731873  MEMB      32              0.0000000000
      3833        32  OYPE      H6S           -21.6693674990      -10.5545989061        9.0024099438  MEMB      32              0.0000000000
      3834        32  OYPE      C27           -23.7167732084      -11.2527117401        8.4739086005  MEMB      32              0.0000000000
      3835        32  OYPE      H7R           -24.1340854175      -10.3803006858        9.0207820110  MEMB      32              0.0000000000
      3836        32  OYPE      H7S           -24.4020166313      -12.0935234022        8.7143211104  MEMB      32              0.0000000000
      3837        32  OYPE      C28           -23.8117975642      -11.1671437031        6.9331126938  MEMB      32              0.0000000000
      3838        32  OYPE      H8R           -23.1377782354      -11.8684901493        6.3963340754  MEMB      32              0.0000000000
      3839        32  OYPE      H8S           -23.3814000425      -10.2003266662        6.5949649092  MEMB      32              0.0000000000
      3840        32  OYPE      C29           -25.2142727572      -11.0400197566        6.5333143246  MEMB      32              0.0000000000
      3841        32  OYPE      H9R           -25.5941147070      -10.0557147826        6.8445443562  MEMB      32              0.0000000000
      3842        32  OYPE      C210          -25.9415622225      -11.9249548948        5.8815754399  MEMB      32              0.0000000000
      3843        32  OYPE      H10R          -26.9021490639      -11.6056495167        5.4510915736  MEMB      32              0.0000000000
      3844        32  OYPE      C211          -25.4729857990      -13.2940966839        5.5269159218  MEMB      32              0.0000000000
      3845        32  OYPE      H11R          -26.3480745408      -13.9783492743        5.5453401441  MEMB      32              0.0000000000
      3846        32  OYPE      H11S          -24.7435894405      -13.7481125683        6.2313104273  MEMB      32              0.0000000000
      3847        32  OYPE      C212          -24.8547302464      -13.3944355687        4.1449529815  MEMB      32              0.0000000000
      3848        32  OYPE      H12R          -24.5312849051      -14.4444289028        3.9799734579  MEMB      32              0.0000000000
      3849        32  OYPE      H12S          -23.9522044222      -12.7483165939        4.1928941704  MEMB      32              0.0000000000
      3850        32  OYPE      C213          -25.8050941987      -12.9115363190        2.9969359234  MEMB      32              0.0000000000
      3851        32  OYPE      H13R          -25.1649184470      -12.5994068759        2.1442506807  MEMB      32              0.0000000000
      3852        32  OYPE      H13S          -26.3610994661      -12.0056737507        3.3203421422  MEMB      32              0.0000000000
      3853        32  OYPE      C214          -26.9325968776      -13.9337576879        2.5749746592  MEMB      32              0.0000000000
      3854        32  OYPE      H14R          -27.4055947130      -13.4482700813        1.6946930194  MEMB      32              0.0000000000
      3855        32  OYPE      H14S          -27.7285918426      -13.9887384148        3.3480788964  MEMB      32              0.0000000000
      3856        32  OYPE      C215          -26.6119093308      -15.3611877623        2.1750026884  MEMB      32              0.0000000000
      3857        32  OYPE      H15R          -27.5791792549      -15.8987086374        2.0761050862  MEMB      32              0.0000000000
      3858        32  OYPE      H15S          -26.0927644187      -15.7826552178        3.0622309251  MEMB      32              0.0000000000
      3859        32  OYPE      C216          -25.7281818747      -15.5486106893        0.9323313529  MEMB      32              0.0000000000
      3860        32  OYPE      H16R          -24.7378059195      -15.1123980071        1.1837159901  MEMB      32              0.0000000000
      3861        32  OYPE      H16S          -26.1418883900      -14.9911101313        0.0649435542  MEMB      32              0.0000000000
      3862        32  OYPE      H16T          -25.5539312060      -16.6093441148        0.6516121168  MEMB      32              0.0000000000
      3863        32  OYPE      C33           -25.8721508515      -15.3985897117       10.9861120304  MEMB      32              0.0000000000
      3864        32  OYPE      H3X           -25.6223155163      -14.4781869159       10.4162332547  MEMB      32              0.0000000000
      3865        32  OYPE      H3Y           -26.8607739083      -15.4623814962       11.4889800401  MEMB      32              0.0000000000
      3866        32  OYPE      C34           -26.1368889453      -16.5766751577        9.9969552911  MEMB      32              0.0000000000
      3867        32  OYPE      H4X           -26.2812591683      -17.4977204800       10.6012344650  MEMB      32              0.0000000000
      3868        32  OYPE      H4Y           -27.0239943215      -16.3168876507        9.3806146882  MEMB      32              0.0000000000
      3869        32  OYPE      C35           -24.9504570411      -16.8685400683        9.1488839646  MEMB      32              0.0000000000
      3870        32  OYPE      H5X           -25.1114389204      -17.8824863917        8.7242443724  MEMB      32              0.0000000000
      3871        32  OYPE      H5Y           -24.0827219394      -16.9169053142        9.8409944609  MEMB      32              0.0000000000
      3872        32  OYPE      C36           -24.6217305614      -15.9503422068        7.9603575826  MEMB      32              0.0000000000
      3873        32  OYPE      H6X           -25.5836123581      -15.6951006935        7.4664376388  MEMB      32              0.0000000000
      3874        32  OYPE      H6Y           -24.2343417603      -15.0073612644        8.4019875293  MEMB      32              0.0000000000
      3875        32  OYPE      C37           -23.5939807027      -16.4560580684        6.8901793768  MEMB      32              0.0000000000
      3876        32  OYPE      H7X           -24.1772678240      -17.2229298190        6.3370019370  MEMB      32              0.0000000000
      3877        32  OYPE      H7Y           -23.5621826674      -15.6248624469        6.1536850086  MEMB      32              0.0000000000
      3878        32  OYPE      C38           -22.2540107020      -16.8908963903        7.3002343817  MEMB      32              0.0000000000
      3879        32  OYPE      H8X           -22.3915495723      -17.8733989233        7.8003273206  MEMB      32              0.0000000000
      3880        32  OYPE      H8Y           -21.6808635835      -17.1415288238        6.3820796389  MEMB      32              0.0000000000
      3881        32  OYPE      C39           -21.4917416974      -15.8327640915        8.1263031164  MEMB      32              0.0000000000
      3882        32  OYPE      H9X           -21.7580043386      -15.7216599200        9.1877928113  MEMB      32              0.0000000000
      3883        32  OYPE      C310          -20.5373780936      -14.9993385487        7.6546801305  MEMB      32              0.0000000000
      3884        32  OYPE      H10X          -20.1005232986      -14.2073284553        8.2806817441  MEMB      32              0.0000000000
      3885        32  OYPE      C311          -19.9732286908      -14.8702928384        6.2181971369  MEMB      32              0.0000000000
      3886        32  OYPE      H11X          -19.7141872191      -15.8593692582        5.7835175867  MEMB      32              0.0000000000
      3887        32  OYPE      H11Y          -20.7037714502      -14.5227630985        5.4567173950  MEMB      32              0.0000000000
      3888        32  OYPE      C312          -18.6516454164      -14.1279099597        6.1993876998  MEMB      32              0.0000000000
      3889        32  OYPE      H12X          -18.3288892853      -14.2879531307        5.1484182942  MEMB      32              0.0000000000
      3890        32  OYPE      H12Y          -17.8007094497      -14.5013158607        6.8083184454  MEMB      32              0.0000000000
      3891        32  OYPE      C313          -18.7098749118      -12.6359810972        6.5960246216  MEMB      32              0.0000000000
      3892        32  OYPE      H13X          -18.9093018337      -12.5568373981        7.6861094757  MEMB      32              0.0000000000
      3893        32  OYPE      H13Y          -17.7157007001      -12.2809245937        6.2497970250  MEMB      32              0.0000000000
      3894        32  OYPE      C314          -19.7006049883      -11.8677319900        5.7076059385  MEMB      32              0.0000000000
      3895        32  OYPE      H14X          -19.9555257206      -10.9430503948        6.2682309738  MEMB      32              0.0000000000
      3896        32  OYPE      H14Y          -20.6274835311      -12.4624862344        5.5610312086  MEMB      32              0.0000000000
      3897        32  OYPE      C315          -19.1235971828      -11.3842299275        4.3419141624  MEMB      32              0.0000000000
      3898        32  OYPE      H15X          -18.8391315917      -12.1692109274        3.6089716083  MEMB      32              0.0000000000
      3899        32  OYPE      H15Y          -18.2689604631      -10.6877862328        4.4793303881  MEMB      32              0.0000000000
      3900        32  OYPE      C316          -20.1020207146      -10.5458735935        3.6140125684  MEMB      32              0.0000000000
      3901        32  OYPE      H16X          -19.6696101757      -10.1592091750        2.6664721394  MEMB      32              0.0000000000
      3902        32  OYPE      H16Y          -20.5755203262       -9.7226855066        4.1906239481  MEMB      32              0.0000000000
      3903        32  OYPE      C317          -21.3509896213      -11.4165347325        3.1445526929  MEMB      32              0.0000000000
      3904        32  OYPE      H17X          -21.8769005365      -11.8087713931        4.0411510807  MEMB      32              0.0000000000
      3905        32  OYPE      H17Y          -21.0530533670      -12.3508086531        2.6223576849  MEMB      32              0.0000000000
      3906        32  OYPE      C318          -22.4098075170      -10.7981140099        2.2176441272  MEMB      32              0.0000000000
      3907        32  OYPE      H18X          -23.0432737501      -10.0813063505        2.7826473696  MEMB      32              0.0000000000
      3908        32  OYPE      H18Y          -22.0517976617      -10.3124007926        1.2847831439  MEMB      32              0.0000000000
      3909        32  OYPE      H18Z          -23.0464628289      -11.6106242301        1.8067694810  MEMB      32              0.0000000000
      3910        33  OYPE      N               3.3466650984       22.4635163470       19.8398742340  MEMB      33              0.0000000000
      3911        33  OYPE      HN1             3.7391900968       22.3016569036       18.8904925396  MEMB      33              0.0000000000
      3912        33  OYPE      HN2             3.9311349285       22.0777594603       20.6087609002  MEMB      33              0.0000000000
      3913        33  OYPE      HN3             2.3980188530       22.0396577061       19.8847560554  MEMB      33              0.0000000000
      3914        33  OYPE      C12             3.1914410697       23.9567835228       20.1319970209  MEMB      33              0.0000000000
      3915        33  OYPE      H12A            2.4062788915       24.0323782214       20.9143823159  MEMB      33              0.0000000000
      3916        33  OYPE      H12B            2.7713458448       24.4947014272       19.2553641613  MEMB      33              0.0000000000
      3917        33  OYPE      C11             4.4887898524       24.5872475683       20.5275886772  MEMB      33              0.0000000000
      3918        33  OYPE      H11A            4.6777098163       24.1180057890       21.5167510488  MEMB      33              0.0000000000
      3919        33  OYPE      H11B            4.3832098815       25.6688399257       20.7585256634  MEMB      33              0.0000000000
      3920        33  OYPE      P               5.6651893648       25.1473693353       18.2642617320  MEMB      33              0.0000000000
      3921        33  OYPE      O13             5.4758899863       26.5913549519       18.5942253890  MEMB      33              0.0000000000
      3922        33  OYPE      O14             4.8440961244       24.5051634683       17.1893370163  MEMB      33              0.0000000000
      3923        33  OYPE      O11             7.1463397034       24.8260935663       17.8071145652  MEMB      33              0.0000000000
      3924        33  OYPE      O12             5.5111984806       24.2662744815       19.6456013523  MEMB      33              0.0000000000
      3925        33  OYPE      C1              8.2396236925       25.6196791431       18.3296559623  MEMB      33              0.0000000000
      3926        33  OYPE      HA              8.3098902376       25.5148161813       19.4334617971  MEMB      33              0.0000000000
      3927        33  OYPE      HB              8.1388905937       26.7072262961       18.1261497750  MEMB      33              0.0000000000
      3928        33  OYPE      C2              9.6489635284       25.1447128278       17.7633768487  MEMB      33              0.0000000000
      3929        33  OYPE      HS             10.3420589530       25.9938552344       17.9447525922  MEMB      33              0.0000000000
      3930        33  OYPE      O21             9.6542263362       24.9590336406       16.3317892257  MEMB      33              0.0000000000
      3931        33  OYPE      C21             9.5107251359       25.9921237757       15.5913661863  MEMB      33              0.0000000000
      3932        33  OYPE      O22             9.5239873041       27.1820004322       15.9190511337  MEMB      33              0.0000000000
      3933        33  OYPE      C22             9.0672377945       25.4204635745       14.2298384613  MEMB      33              0.0000000000
      3934        33  OYPE      H2R             8.7363546553       26.2827691725       13.6123708149  MEMB      33              0.0000000000
      3935        33  OYPE      H2S             8.1728944534       24.7614017677       14.2194304733  MEMB      33              0.0000000000
      3936        33  OYPE      C3             10.1174451638       23.8030546620       18.4482888000  MEMB      33              0.0000000000
      3937        33  OYPE      HX             10.1685475429       23.8933792058       19.5544312542  MEMB      33              0.0000000000
      3938        33  OYPE      HY             11.1207779014       23.6305488039       18.0034448335  MEMB      33              0.0000000000
      3939        33  OYPE      O31             9.1686407636       22.7205750378       18.1670273857  MEMB      33              0.0000000000
      3940        33  OYPE      C31             9.3060559765       22.0271129000       17.0311610331  MEMB      33              0.0000000000
      3941        33  OYPE      O32            10.2270574841       22.0393779608       16.2370372383  MEMB      33              0.0000000000
      3942        33  OYPE      C32             8.1476462573       21.0543425720       16.9639284839  MEMB      33              0.0000000000
      3943        33  OYPE      H2X             8.4514253549       20.2092479176       16.3098230072  MEMB      33              0.0000000000
      3944        33  OYPE      H2Y             7.8550466111       20.6075995016       17.9381600377  MEMB      33              0.0000000000
      3945        33  OYPE      C23            10.2448754916       24.7061034611       13.5105871469  MEMB      33              0.0000000000
      3946        33  OYPE      H3R            10.6859308497       24.0221484502       14.2668917490  MEMB      33              0.0000000000
      3947        33  OYPE      H3S            10.9625735654       25.5435163177       13.3765331127  MEMB      33              0.0000000000
      3948        33  OYPE      C24             9.9385089524       23.9948396441       12.2553932919  MEMB      33              0.0000000000
      3949        33  OYPE      H4R             9.1860992556       23.1963070913       12.4301688003  MEMB      33              0.0000000000
      3950        33  OYPE      H4S            10.9337734353       23.5740333809       11.9971453779  MEMB      33              0.0000000000
      3951        33  OYPE      C25             9.5033061911       24.8499765574       11.0004281631  MEMB      33              0.0000000000
      3952        33  OYPE      H5R            10.3728353741       25.5413521118       10.9849356081  MEMB      33              0.0000000000
      3953        33  OYPE      H5S             8.5347432190       25.3628462524       11.1825582238  MEMB      33              0.0000000000
      3954        33  OYPE      C26             9.3340547032       24.0615449444        9.6972712655  MEMB      33              0.0000000000
      3955        33  OYPE      H6R             8.3639806570       23.5249196844        9.7701473939  MEMB      33              0.0000000000
      3956        33  OYPE      H6S            10.0982623026       23.2560786119        9.6581338285  MEMB      33              0.0000000000
      3957        33  OYPE      C27             9.3373516297       24.9463510211        8.4152151932  MEMB      33              0.0000000000
      3958        33  OYPE      H7R            10.2400065908       25.5789838711        8.5541780913  MEMB      33              0.0000000000
      3959        33  OYPE      H7S             8.3821458468       25.5129412971        8.3855787087  MEMB      33              0.0000000000
      3960        33  OYPE      C28             9.4710805658       24.1114495451        7.1066326257  MEMB      33              0.0000000000
      3961        33  OYPE      H8R             9.4662689236       24.8005973837        6.2352125484  MEMB      33              0.0000000000
      3962        33  OYPE      H8S             8.5654990380       23.4699200505        7.0548353300  MEMB      33              0.0000000000
      3963        33  OYPE      C29            10.7517794705       23.2503523704        6.9194471970  MEMB      33              0.0000000000
      3964        33  OYPE      H9R            10.7977606084       22.3189019323        7.5027875350  MEMB      33              0.0000000000
      3965        33  OYPE      C210           11.8359443771       23.5019028687        6.1830842044  MEMB      33              0.0000000000
      3966        33  OYPE      H10R           12.6968374960       22.8172569275        6.1719864012  MEMB      33              0.0000000000
      3967        33  OYPE      C211           12.0690692481       24.6627599095        5.2678041021  MEMB      33              0.0000000000
      3968        33  OYPE      H11R           13.1669937665       24.7990347412        5.1662590950  MEMB      33              0.0000000000
      3969        33  OYPE      H11S           11.7347467849       25.5934733463        5.7740868260  MEMB      33              0.0000000000
      3970        33  OYPE      C212           11.5212359423       24.4569261346        3.8593852237  MEMB      33              0.0000000000
      3971        33  OYPE      H12R           10.4107753498       24.4387514633        3.8299239990  MEMB      33              0.0000000000
      3972        33  OYPE      H12S           11.9868856594       23.5223824048        3.4797540768  MEMB      33              0.0000000000
      3973        33  OYPE      C213           12.0293904742       25.6302527880        2.9100557029  MEMB      33              0.0000000000
      3974        33  OYPE      H13R           11.6770970204       26.5948372869        3.3340703827  MEMB      33              0.0000000000
      3975        33  OYPE      H13S           11.6123087177       25.5453479044        1.8838232644  MEMB      33              0.0000000000
      3976        33  OYPE      C214           13.5617566936       25.6087997236        2.9356062544  MEMB      33              0.0000000000
      3977        33  OYPE      H14R           13.8967097834       24.5717727034        3.1517131438  MEMB      33              0.0000000000
      3978        33  OYPE      H14S           13.9529956464       26.2263952485        3.7721651044  MEMB      33              0.0000000000
      3979        33  OYPE      C215           14.1678313535       26.0758864399        1.5583714885  MEMB      33              0.0000000000
      3980        33  OYPE      H15R           15.2471549437       25.9794040739        1.8034689336  MEMB      33              0.0000000000
      3981        33  OYPE      H15S           13.9495686349       27.1363200448        1.3090465308  MEMB      33              0.0000000000
      3982        33  OYPE      C216           13.7539901573       25.2138882078        0.2604309411  MEMB      33              0.0000000000
      3983        33  OYPE      H16R           12.6821096084       25.3679983830        0.0121508086  MEMB      33              0.0000000000
      3984        33  OYPE      H16S           14.0133048452       24.2068085991        0.6514146477  MEMB      33              0.0000000000
      3985        33  OYPE      H16T           14.3957644257       25.3350253026       -0.6383317527  MEMB      33              0.0000000000
      3986        33  OYPE      C33             6.9079126730       21.5859863955       16.2512864103  MEMB      33              0.0000000000
      3987        33  OYPE      H3X             6.6505720614       22.5544404543       16.7310715661  MEMB      33              0.0000000000
      3988        33  OYPE      H3Y             6.0346442916       20.9044533644       16.3363506575  MEMB      33              0.0000000000
      3989        33  OYPE      C34             6.9359410806       21.7861359287       14.7120792986  MEMB      33              0.0000000000
      3990        33  OYPE      H4X             7.9558402707       22.1172547865       14.4214134012  MEMB      33              0.0000000000
      3991        33  OYPE      H4Y             6.8099337522       20.8020124764       14.2121354156  MEMB      33              0.0000000000
      3992        33  OYPE      C35             5.7921901181       22.5875897138       14.1069257480  MEMB      33              0.0000000000
      3993        33  OYPE      H5X             5.6870741927       23.5833327784       14.5883481341  MEMB      33              0.0000000000
      3994        33  OYPE      H5Y             4.8728860389       21.9764953536       14.2324808735  MEMB      33              0.0000000000
      3995        33  OYPE      C36             5.8822717347       22.7377370604       12.5387664210  MEMB      33              0.0000000000
      3996        33  OYPE      H6X             6.8604530375       23.2104439176       12.3063211690  MEMB      33              0.0000000000
      3997        33  OYPE      H6Y             5.9102789443       21.7196630003       12.0948497415  MEMB      33              0.0000000000
      3998        33  OYPE      C37             4.7324691703       23.4599273563       11.8503978159  MEMB      33              0.0000000000
      3999        33  OYPE      H7X             4.8718312482       23.1826414356       10.7836215567  MEMB      33              0.0000000000
      4000        33  OYPE      H7Y             3.8035118638       22.9912844865       12.2399279389  MEMB      33              0.0000000000
      4001        33  OYPE      C38             4.5900904128       24.9566231343       12.3012992328  MEMB      33              0.0000000000
      4002        33  OYPE      H8X             3.6706542255       25.1500769299       11.7083967290  MEMB      33              0.0000000000
      4003        33  OYPE      H8Y             4.2244555549       25.1706111985       13.3283539974  MEMB      33              0.0000000000
      4004        33  OYPE      C39             5.6599345939       25.9275783700       12.0084959589  MEMB      33              0.0000000000
      4005        33  OYPE      H9X             6.4783535946       25.7961617849       12.7316281367  MEMB      33              0.0000000000
      4006        33  OYPE      C310            5.6645929877       26.9358193131       11.1507108907  MEMB      33              0.0000000000
      4007        33  OYPE      H10X            6.6435805661       27.4130407659       10.9962981811  MEMB      33              0.0000000000
      4008        33  OYPE      C311            4.6110123524       27.4167751660       10.2155621368  MEMB      33              0.0000000000
      4009        33  OYPE      H11X            3.5467121595       27.2411579242       10.4815418273  MEMB      33              0.0000000000
      4010        33  OYPE      H11Y            4.7912241172       28.5130583808       10.2127912863  MEMB      33              0.0000000000
      4011        33  OYPE      C312            4.8954380562       26.9575139582        8.7653764269  MEMB      33              0.0000000000
      4012        33  OYPE      H12X            4.3448538305       25.9953252045        8.6920904533  MEMB      33              0.0000000000
      4013        33  OYPE      H12Y            5.9718931321       26.6881821372        8.7103669050  MEMB      33              0.0000000000
      4014        33  OYPE      C313            4.3312046228       27.8341872238        7.6649638049  MEMB      33              0.0000000000
      4015        33  OYPE      H13X            3.2302908291       27.6995597979        7.6002692989  MEMB      33              0.0000000000
      4016        33  OYPE      H13Y            4.4692731737       28.9049112667        7.9272771842  MEMB      33              0.0000000000
      4017        33  OYPE      C314            4.9181784561       27.6945190502        6.2578840532  MEMB      33              0.0000000000
      4018        33  OYPE      H14X            5.9979261010       27.9515092079        6.2086725529  MEMB      33              0.0000000000
      4019        33  OYPE      H14Y            4.3980553373       28.4578478082        5.6405327952  MEMB      33              0.0000000000
      4020        33  OYPE      C315            4.6233637887       26.2340884724        5.7419794598  MEMB      33              0.0000000000
      4021        33  OYPE      H15X            3.5906764490       26.0829298816        6.1228071126  MEMB      33              0.0000000000
      4022        33  OYPE      H15Y            5.2889648194       25.4676381761        6.1934773824  MEMB      33              0.0000000000
      4023        33  OYPE      C316            4.7544179124       26.1672775652        4.2005727645  MEMB      33              0.0000000000
      4024        33  OYPE      H16X            4.2513190815       27.0633904177        3.7784414297  MEMB      33              0.0000000000
      4025        33  OYPE      H16Y            4.1625300187       25.2944918002        3.8509521867  MEMB      33              0.0000000000
      4026        33  OYPE      C317            6.2031775627       26.1511476434        3.6857013847  MEMB      33              0.0000000000
      4027        33  OYPE      H17X            6.7991609481       25.3588846739        4.1871436612  MEMB      33              0.0000000000
      4028        33  OYPE      H17Y            6.5621642878       27.1944848791        3.8156898682  MEMB      33              0.0000000000
      4029        33  OYPE      C318            6.3686230741       25.7370399508        2.1858617341  MEMB      33              0.0000000000
      4030        33  OYPE      H18X            5.8593244231       26.4274588610        1.4799881904  MEMB      33              0.0000000000
      4031        33  OYPE      H18Y            7.4519775094       25.6077550891        1.9762151467  MEMB      33              0.0000000000
      4032        33  OYPE      H18Z            5.8728336457       24.7440611721        2.1357897929  MEMB      33              0.0000000000
      4033        34  PMPG      C13            -9.4631899437       21.3732359630       20.3973694561  MEMB      34              0.0000000000
      4034        34  PMPG      H13A           -8.9414387352       20.6798418826       21.0911284860  MEMB      34              0.0000000000
      4035        34  PMPG      H13B           -9.7702652180       22.3418781437       20.8465440942  MEMB      34              0.0000000000
      4036        34  PMPG      OC3           -10.6475196290       20.8053395789       19.8520899084  MEMB      34              0.0000000000
      4037        34  PMPG      HO3           -11.3783213598       21.3463080224       20.1601191906  MEMB      34              0.0000000000
      4038        34  PMPG      C12            -8.4563529998       21.7798543723       19.2922157369  MEMB      34              0.0000000000
      4039        34  PMPG      H12A           -8.2641720344       20.8749505593       18.6701268318  MEMB      34              0.0000000000
      4040        34  PMPG      OC2            -7.2178966267       22.1824812199       19.8788658231  MEMB      34              0.0000000000
      4041        34  PMPG      HO2            -6.7170327824       22.5406362386       19.1136356408  MEMB      34              0.0000000000
      4042        34  PMPG      C11            -8.9388362585       22.8559992179       18.3652647615  MEMB      34              0.0000000000
      4043        34  PMPG      H11A           -9.6484974207       22.3791157806       17.6558395448  MEMB      34              0.0000000000
      4044        34  PMPG      H11B           -8.0843061023       23.0816404335       17.6920744171  MEMB      34              0.0000000000
      4045        34  PMPG      P             -10.2506990434       25.0916147320       18.4656520628  MEMB      34              0.0000000000
      4046        34  PMPG      O13            -9.4256600708       25.6712536646       17.3416528263  MEMB      34              0.0000000000
      4047        34  PMPG      O14           -10.6944743409       25.9713404286       19.4969924788  MEMB      34              0.0000000000
      4048        34  PMPG      O11           -11.5412343100       24.3106629106       17.8443822154  MEMB      34              0.0000000000
      4049        34  PMPG      O12            -9.3601153273       23.9913449129       19.0655146971  MEMB      34              0.0000000000
      4050        34  PMPG      C1            -12.4075771523       23.7312609720       18.8558501833  MEMB      34              0.0000000000
      4051        34  PMPG      HA            -13.0057803571       24.4671042140       19.4346495019  MEMB      34              0.0000000000
      4052        34  PMPG      HB            -11.8231170970       23.1086946478       19.5665813029  MEMB      34              0.0000000000
      4053        34  PMPG      C2            -13.3701386781       22.7252982340       18.0869832335  MEMB      34              0.0000000000
      4054        34  PMPG      HS            -13.8267986768       22.0874811700       18.8737309361  MEMB      34              0.0000000000
      4055        34  PMPG      O21           -12.5486008538       21.9735280051       17.1051552906  MEMB      34              0.0000000000
      4056        34  PMPG      C21           -13.0039960159       20.8197598359       16.7311583417  MEMB      34              0.0000000000
      4057        34  PMPG      O22           -14.1108226190       20.3942671355       17.0112231270  MEMB      34              0.0000000000
      4058        34  PMPG      C22           -11.9552069455       20.1402664012       15.8681251590  MEMB      34              0.0000000000
      4059        34  PMPG      H2R           -11.3080018973       19.4931537925       16.4979599292  MEMB      34              0.0000000000
      4060        34  PMPG      H2S           -11.2500565270       20.9274137236       15.5253668133  MEMB      34              0.0000000000
      4061        34  PMPG      C3            -14.4455959119       23.4383094989       17.2765073603  MEMB      34              0.0000000000
      4062        34  PMPG      HX            -15.2003816249       23.9381186217       17.9205652101  MEMB      34              0.0000000000
      4063        34  PMPG      HY            -15.1139215527       22.8952908575       16.5745153947  MEMB      34              0.0000000000
      4064        34  PMPG      O31           -13.9514341549       24.4916856773       16.4322427881  MEMB      34              0.0000000000
      4065        34  PMPG      C31           -13.4271479280       24.1358834008       15.2765355649  MEMB      34              0.0000000000
      4066        34  PMPG      O32           -13.6163563024       23.1266640948       14.6508217377  MEMB      34              0.0000000000
      4067        34  PMPG      C32           -12.4334550139       25.2191105686       14.7486954077  MEMB      34              0.0000000000
      4068        34  PMPG      H2X           -11.8795281319       25.6204607235       15.6241405323  MEMB      34              0.0000000000
      4069        34  PMPG      H2Y           -13.0332313105       26.0072908317       14.2453455081  MEMB      34              0.0000000000
      4070        34  PMPG      C23           -12.5092228491       19.3759493162       14.6215822668  MEMB      34              0.0000000000
      4071        34  PMPG      H3R           -13.0158515058       20.0704711813       13.9178159654  MEMB      34              0.0000000000
      4072        34  PMPG      H3S           -13.1715345978       18.5495851448       14.9574198708  MEMB      34              0.0000000000
      4073        34  PMPG      C24           -11.3709709149       18.7561196076       13.7349806328  MEMB      34              0.0000000000
      4074        34  PMPG      H4R           -11.8764988655       18.2751612374       12.8704336811  MEMB      34              0.0000000000
      4075        34  PMPG      H4S           -10.7833057008       18.0320891240       14.3389263472  MEMB      34              0.0000000000
      4076        34  PMPG      C25           -10.3299590928       19.7726373901       13.1947933183  MEMB      34              0.0000000000
      4077        34  PMPG      H5R            -9.5080952256       19.1972895980       12.7174722491  MEMB      34              0.0000000000
      4078        34  PMPG      H5S            -9.8805729782       20.3348945011       14.0411029848  MEMB      34              0.0000000000
      4079        34  PMPG      C26           -10.9431646902       20.8118198091       12.2659372529  MEMB      34              0.0000000000
      4080        34  PMPG      H6R           -10.0791581135       21.4571898747       11.9988955577  MEMB      34              0.0000000000
      4081        34  PMPG      H6S           -11.6886787403       21.3869635346       12.8556318157  MEMB      34              0.0000000000
      4082        34  PMPG      C27           -11.4967139409       20.2912076271       10.9444844494  MEMB      34              0.0000000000
      4083        34  PMPG      H7R           -12.1755775145       21.0216531715       10.4546735335  MEMB      34              0.0000000000
      4084        34  PMPG      H7S           -12.1024173638       19.3742605170       11.1077395448  MEMB      34              0.0000000000
      4085        34  PMPG      C28           -10.5304113325       19.9286790210        9.8013865942  MEMB      34              0.0000000000
      4086        34  PMPG      H8R           -10.9534376370       19.4055722992        8.9172320971  MEMB      34              0.0000000000
      4087        34  PMPG      H8S            -9.8434356129       19.1900498472       10.2670178663  MEMB      34              0.0000000000
      4088        34  PMPG      C29            -9.7243497640       21.1399707998        9.3491636196  MEMB      34              0.0000000000
      4089        34  PMPG      H9R            -9.9878161481       22.1932673824        9.5846899003  MEMB      34              0.0000000000
      4090        34  PMPG      C217           -8.2541335613       20.8631341579        9.3974941042  MEMB      34              0.0000000000
      4091        34  PMPG      H17R           -7.6394719575       21.6661365733        9.7851374105  MEMB      34              0.0000000000
      4092        34  PMPG      H17S           -7.9887131168       19.8325994743        9.5985892760  MEMB      34              0.0000000000
      4093        34  PMPG      C210           -8.9517914568       21.0025073819        8.0455927135  MEMB      34              0.0000000000
      4094        34  PMPG      H10R           -8.8591808357       21.9197185297        7.4255383492  MEMB      34              0.0000000000
      4095        34  PMPG      C211           -8.8682465303       19.7387619720        7.2512237046  MEMB      34              0.0000000000
      4096        34  PMPG      H11R           -8.8627781595       18.8111285135        7.8626048467  MEMB      34              0.0000000000
      4097        34  PMPG      H11S           -9.6247000813       19.6169919461        6.4466928113  MEMB      34              0.0000000000
      4098        34  PMPG      C212           -7.3979302422       19.8151233561        6.6892730101  MEMB      34              0.0000000000
      4099        34  PMPG      H12R           -6.7841902031       19.5450362684        7.5751040280  MEMB      34              0.0000000000
      4100        34  PMPG      H12S           -7.2165759673       20.8015910222        6.2114513649  MEMB      34              0.0000000000
      4101        34  PMPG      C213           -7.1424571509       18.6850975169        5.6659297623  MEMB      34              0.0000000000
      4102        34  PMPG      H13R           -8.1121210846       18.4538079904        5.1754420447  MEMB      34              0.0000000000
      4103        34  PMPG      H13S           -6.9557705408       17.7626540048        6.2563255658  MEMB      34              0.0000000000
      4104        34  PMPG      C214           -6.0747677231       18.9036187852        4.5940781812  MEMB      34              0.0000000000
      4105        34  PMPG      H14R           -5.8719141489       17.9095077891        4.1414024810  MEMB      34              0.0000000000
      4106        34  PMPG      H14S           -5.2203256528       19.2828619300        5.1944317749  MEMB      34              0.0000000000
      4107        34  PMPG      C215           -6.2293716910       19.9637056830        3.4714055171  MEMB      34              0.0000000000
      4108        34  PMPG      H15R           -5.1884672830       20.1896652429        3.1555243551  MEMB      34              0.0000000000
      4109        34  PMPG      H15S           -6.4701355346       20.8927642961        4.0310519442  MEMB      34              0.0000000000
      4110        34  PMPG      C216           -7.2430249950       19.6607685705        2.3331412110  MEMB      34              0.0000000000
      4111        34  PMPG      H16R           -6.8267921151       18.8075700693        1.7559723698  MEMB      34              0.0000000000
      4112        34  PMPG      H16S           -7.3424682594       20.5794103237        1.7162705221  MEMB      34              0.0000000000
      4113        34  PMPG      H16T           -8.2190301118       19.4306376390        2.8114468033  MEMB      34              0.0000000000
      4114        34  PMPG      C33           -11.4327031150       24.5899883945       13.7262407921  MEMB      34              0.0000000000
      4115        34  PMPG      H3X           -11.2526016109       23.5327314422       14.0162272467  MEMB      34              0.0000000000
      4116        34  PMPG      H3Y           -10.5507081412       25.2332619451       13.9326503085  MEMB      34              0.0000000000
      4117        34  PMPG      C34           -12.0874650407       24.7759303280       12.3820545903  MEMB      34              0.0000000000
      4118        34  PMPG      H4X           -12.4053464554       25.8207540554       12.1780550058  MEMB      34              0.0000000000
      4119        34  PMPG      H4Y           -12.9962704516       24.1369527691       12.3921206133  MEMB      34              0.0000000000
      4120        34  PMPG      C35           -11.2593256917       24.5305102161       11.1016132992  MEMB      34              0.0000000000
      4121        34  PMPG      H5X           -11.9076137548       24.2750792023       10.2362818923  MEMB      34              0.0000000000
      4122        34  PMPG      H5Y           -10.6283949923       23.6314915297       11.2689842603  MEMB      34              0.0000000000
      4123        34  PMPG      C36           -10.3058784507       25.6203629050       10.7006881535  MEMB      34              0.0000000000
      4124        34  PMPG      H6X            -9.6285169605       25.8154550428       11.5594321214  MEMB      34              0.0000000000
      4125        34  PMPG      H6Y           -10.6670660401       26.6264451932       10.3979296219  MEMB      34              0.0000000000
      4126        34  PMPG      C37            -9.4220852715       25.2285995615        9.5289059621  MEMB      34              0.0000000000
      4127        34  PMPG      H7X            -8.9461063901       24.2484536517        9.7458839513  MEMB      34              0.0000000000
      4128        34  PMPG      H7Y            -8.6391275707       26.0087678308        9.4164977016  MEMB      34              0.0000000000
      4129        34  PMPG      C38           -10.2439389718       25.2175750413        8.1992819041  MEMB      34              0.0000000000
      4130        34  PMPG      H8X           -10.9635048797       26.0616947150        8.2625902961  MEMB      34              0.0000000000
      4131        34  PMPG      H8Y           -10.7805124519       24.2557539141        8.0533025939  MEMB      34              0.0000000000
      4132        34  PMPG      C39            -9.3231632950       25.3414450459        6.9572936495  MEMB      34              0.0000000000
      4133        34  PMPG      H9X            -8.4043429586       24.7713835187        7.2124802368  MEMB      34              0.0000000000
      4134        34  PMPG      H9Y            -9.0739298957       26.4230784340        7.0049693721  MEMB      34              0.0000000000
      4135        34  PMPG      C310           -9.8923735226       24.8984753595        5.6375961104  MEMB      34              0.0000000000
      4136        34  PMPG      H10X           -9.1532568275       25.2568546486        4.8895376011  MEMB      34              0.0000000000
      4137        34  PMPG      H10Y          -10.8557875234       25.4118056189        5.4310868351  MEMB      34              0.0000000000
      4138        34  PMPG      C311          -10.1223383199       23.4074247768        5.3728497386  MEMB      34              0.0000000000
      4139        34  PMPG      H11X          -10.6478637505       22.9617043717        6.2443302932  MEMB      34              0.0000000000
      4140        34  PMPG      H11Y           -9.0800394816       23.0259997310        5.3233625263  MEMB      34              0.0000000000
      4141        34  PMPG      C312          -10.8453969323       22.9268921596        4.0708709144  MEMB      34              0.0000000000
      4142        34  PMPG      H12X          -10.4961036664       23.4782487340        3.1718041512  MEMB      34              0.0000000000
      4143        34  PMPG      H12Y          -11.9296067122       23.1369103829        4.1921248896  MEMB      34              0.0000000000
      4144        34  PMPG      C313          -10.8339379122       21.3971956680        3.8455529023  MEMB      34              0.0000000000
      4145        34  PMPG      H13X          -11.6691883845       20.9938634890        4.4571094790  MEMB      34              0.0000000000
      4146        34  PMPG      H13Y           -9.8804792643       21.0000586463        4.2548453027  MEMB      34              0.0000000000
      4147        34  PMPG      C314          -11.1496186792       21.0427608067        2.4791005136  MEMB      34              0.0000000000
      4148        34  PMPG      H14X          -11.2161978873       19.9454155402        2.3187214833  MEMB      34              0.0000000000
      4149        34  PMPG      H14Y          -10.3102305074       21.3805640988        1.8344009922  MEMB      34              0.0000000000
      4150        34  PMPG      C315          -12.5125621217       21.5975534224        2.0306056890  MEMB      34              0.0000000000
      4151        34  PMPG      H15X          -12.3596901008       22.6783493511        1.8236472976  MEMB      34              0.0000000000
      4152        34  PMPG      H15Y          -13.2696431182       21.4928294232        2.8369436990  MEMB      34              0.0000000000
      4153        34  PMPG      C316          -12.9096681547       20.8961769058        0.6727828912  MEMB      34              0.0000000000
      4154        34  PMPG      H16X          -12.0067010524       20.8121894850        0.0309745029  MEMB      34              0.0000000000
      4155        34  PMPG      H16Y          -13.7427997606       21.4358652244        0.1738341820  MEMB      34              0.0000000000
      4156        34  PMPG      H16Z          -13.1069586495       19.8331704839        0.9285450816  MEMB      34              0.0000000000
      4157        35  PMPE      N             -17.0670986209       16.8826911811       21.3681336272  MEMB      35              0.0000000000
      4158        35  PMPE      HN1           -16.4545610295       16.7159204701       20.5443707095  MEMB      35              0.0000000000
      4159        35  PMPE      HN2           -16.7890292736       16.3598298800       22.2230566992  MEMB      35              0.0000000000
      4160        35  PMPE      HN3           -18.0924536079       16.7295549365       21.2856925727  MEMB      35              0.0000000000
      4161        35  PMPE      C12           -16.9808384785       18.3745169329       21.5381694046  MEMB      35              0.0000000000
      4162        35  PMPE      H12A          -16.1593710603       18.5244316820       22.2709978939  MEMB      35              0.0000000000
      4163        35  PMPE      H12B          -17.8557367368       18.7218374957       22.1282900882  MEMB      35              0.0000000000
      4164        35  PMPE      C11           -16.5748009510       19.0710041071       20.2724545725  MEMB      35              0.0000000000
      4165        35  PMPE      H11A          -15.6881636565       18.4894132331       19.9408714452  MEMB      35              0.0000000000
      4166        35  PMPE      H11B          -16.2287907834       20.0720876627       20.6077599974  MEMB      35              0.0000000000
      4167        35  PMPE      P             -17.2969658681       19.0503981246       17.7178713463  MEMB      35              0.0000000000
      4168        35  PMPE      O13           -18.5617844288       19.0151547782       16.9745295293  MEMB      35              0.0000000000
      4169        35  PMPE      O14           -16.3059894236       17.9554754156       17.5527870115  MEMB      35              0.0000000000
      4170        35  PMPE      O11           -16.4963503058       20.4166875738       17.3004900181  MEMB      35              0.0000000000
      4171        35  PMPE      O12           -17.6116727193       19.2220486825       19.2755644881  MEMB      35              0.0000000000
      4172        35  PMPE      C1            -16.5906617878       21.5983456071       18.1010151204  MEMB      35              0.0000000000
      4173        35  PMPE      HA            -15.5812955784       21.9111830670       18.4439924505  MEMB      35              0.0000000000
      4174        35  PMPE      HB            -17.2769486312       21.4402423422       18.9602792094  MEMB      35              0.0000000000
      4175        35  PMPE      C2            -17.1534035755       22.6547873816       17.1402093762  MEMB      35              0.0000000000
      4176        35  PMPE      HS            -17.5202505284       23.5663315507       17.6586993038  MEMB      35              0.0000000000
      4177        35  PMPE      O21           -18.2485346643       22.0998736631       16.3946695382  MEMB      35              0.0000000000
      4178        35  PMPE      C21           -19.0391202012       22.9772530060       15.7989516461  MEMB      35              0.0000000000
      4179        35  PMPE      O22           -19.0375405907       24.1839357658       15.9933413580  MEMB      35              0.0000000000
      4180        35  PMPE      C22           -19.9758371805       22.2622190456       14.9137844704  MEMB      35              0.0000000000
      4181        35  PMPE      H2R           -21.0000057567       22.1994334800       15.3397630009  MEMB      35              0.0000000000
      4182        35  PMPE      H2S           -19.5764174944       21.3012790700       14.5247093162  MEMB      35              0.0000000000
      4183        35  PMPE      C3            -16.0930066186       23.1810003278       16.1220385186  MEMB      35              0.0000000000
      4184        35  PMPE      HX            -15.2055085455       23.5166857505       16.6999512806  MEMB      35              0.0000000000
      4185        35  PMPE      HY            -16.5017539783       24.0701684596       15.5960854459  MEMB      35              0.0000000000
      4186        35  PMPE      O31           -15.7562270290       22.2717584093       15.1395754937  MEMB      35              0.0000000000
      4187        35  PMPE      C31           -14.5429049190       21.6731377095       15.1646606739  MEMB      35              0.0000000000
      4188        35  PMPE      O32           -13.7225123046       21.7975056086       15.9883804861  MEMB      35              0.0000000000
      4189        35  PMPE      C32           -14.4566467071       20.7153450408       13.9760386555  MEMB      35              0.0000000000
      4190        35  PMPE      H2X           -13.4795158214       20.2085215118       13.8254843447  MEMB      35              0.0000000000
      4191        35  PMPE      H2Y           -14.7636778318       21.2988633462       13.0818579211  MEMB      35              0.0000000000
      4192        35  PMPE      C23           -20.1622681634       23.1368511474       13.6138603178  MEMB      35              0.0000000000
      4193        35  PMPE      H3R           -20.7936391560       24.0373738522       13.7711858261  MEMB      35              0.0000000000
      4194        35  PMPE      H3S           -20.6321694967       22.6949149040       12.7093127849  MEMB      35              0.0000000000
      4195        35  PMPE      C24           -18.8301103029       23.5279651441       12.9460798257  MEMB      35              0.0000000000
      4196        35  PMPE      H4R           -18.3275729654       22.5468981022       12.8072113616  MEMB      35              0.0000000000
      4197        35  PMPE      H4S           -18.2347897235       24.2542513084       13.5397313516  MEMB      35              0.0000000000
      4198        35  PMPE      C25           -18.9375111235       24.2252273976       11.5766348590  MEMB      35              0.0000000000
      4199        35  PMPE      H5R           -17.9257881543       24.4578707377       11.1808893023  MEMB      35              0.0000000000
      4200        35  PMPE      H5S           -19.5477565700       25.1530314728       11.5434454011  MEMB      35              0.0000000000
      4201        35  PMPE      C26           -19.5225988455       23.2196911504       10.5240703499  MEMB      35              0.0000000000
      4202        35  PMPE      H6R           -20.6117290932       23.4347382731       10.5673216812  MEMB      35              0.0000000000
      4203        35  PMPE      H6S           -19.4793678528       22.1298366466       10.7354226642  MEMB      35              0.0000000000
      4204        35  PMPE      C27           -18.9350662212       23.4788273838        9.1392506228  MEMB      35              0.0000000000
      4205        35  PMPE      H7R           -17.8872457749       23.1095733160        9.1459896789  MEMB      35              0.0000000000
      4206        35  PMPE      H7S           -18.9375277732       24.5769380849        8.9705290206  MEMB      35              0.0000000000
      4207        35  PMPE      C28           -19.8119717905       22.8187005501        8.0170722660  MEMB      35              0.0000000000
      4208        35  PMPE      H8R           -20.0460841455       21.7653501082        8.2815818454  MEMB      35              0.0000000000
      4209        35  PMPE      H8S           -19.0474207585       22.7230530023        7.2166760307  MEMB      35              0.0000000000
      4210        35  PMPE      C29           -21.0418571020       23.6639669325        7.4194596323  MEMB      35              0.0000000000
      4211        35  PMPE      H9R           -20.8584372269       24.7061678771        7.0810874221  MEMB      35              0.0000000000
      4212        35  PMPE      C217          -22.3475368522       23.4420333510        8.1171358166  MEMB      35              0.0000000000
      4213        35  PMPE      H17R          -22.9361262296       24.3511218340        8.1202221984  MEMB      35              0.0000000000
      4214        35  PMPE      H17S          -22.3867877396       22.6286863974        8.8311492480  MEMB      35              0.0000000000
      4215        35  PMPE      C210          -22.1230795258       22.8580590786        6.7310377529  MEMB      35              0.0000000000
      4216        35  PMPE      H10R          -22.8641087207       23.3819274807        6.0901334639  MEMB      35              0.0000000000
      4217        35  PMPE      C211          -21.9949025637       21.3229440682        6.6763612453  MEMB      35              0.0000000000
      4218        35  PMPE      H11R          -22.9761401269       20.8352116762        6.4930266974  MEMB      35              0.0000000000
      4219        35  PMPE      H11S          -21.8709261391       20.9129301356        7.7014653090  MEMB      35              0.0000000000
      4220        35  PMPE      C212          -20.9707996569       20.7758230776        5.6759301264  MEMB      35              0.0000000000
      4221        35  PMPE      H12R          -21.1966054893       19.7488752345        5.3171660720  MEMB      35              0.0000000000
      4222        35  PMPE      H12S          -19.9890684021       20.7383304244        6.1946964370  MEMB      35              0.0000000000
      4223        35  PMPE      C213          -20.8510632258       21.7544594741        4.4360419707  MEMB      35              0.0000000000
      4224        35  PMPE      H13R          -20.6643158519       22.7749909423        4.8334864246  MEMB      35              0.0000000000
      4225        35  PMPE      H13S          -21.8238120229       21.7399429025        3.8995071874  MEMB      35              0.0000000000
      4226        35  PMPE      C214          -19.7550122707       21.3112986558        3.5060559458  MEMB      35              0.0000000000
      4227        35  PMPE      H14R          -19.9848871551       20.2781814607        3.1681991902  MEMB      35              0.0000000000
      4228        35  PMPE      H14S          -18.7602743461       21.3787388065        3.9962286216  MEMB      35              0.0000000000
      4229        35  PMPE      C215          -19.7350610570       22.0741708779        2.1503397602  MEMB      35              0.0000000000
      4230        35  PMPE      H15R          -18.8237421719       21.7176874324        1.6242797040  MEMB      35              0.0000000000
      4231        35  PMPE      H15S          -19.6784798039       23.1833081574        2.1809062757  MEMB      35              0.0000000000
      4232        35  PMPE      C216          -20.7499240034       21.6081424726        1.1795759012  MEMB      35              0.0000000000
      4233        35  PMPE      H16R          -20.6161882157       22.0934953827        0.1891890434  MEMB      35              0.0000000000
      4234        35  PMPE      H16S          -20.7192332151       20.5572059664        0.8205334564  MEMB      35              0.0000000000
      4235        35  PMPE      H16T          -21.7628634420       21.8372348813        1.5742801882  MEMB      35              0.0000000000
      4236        35  PMPE      C33           -15.3269897415       19.5558613865       14.2531882403  MEMB      35              0.0000000000
      4237        35  PMPE      H3X           -16.3440110532       20.0015122428       14.2159901969  MEMB      35              0.0000000000
      4238        35  PMPE      H3Y           -15.1759511827       19.3548490934       15.3353631919  MEMB      35              0.0000000000
      4239        35  PMPE      C34           -15.1525333734       18.3115537038       13.2637226562  MEMB      35              0.0000000000
      4240        35  PMPE      H4X           -15.8935951169       17.6368415644       13.7432138550  MEMB      35              0.0000000000
      4241        35  PMPE      H4Y           -14.1668800358       17.8247705327       13.4245053048  MEMB      35              0.0000000000
      4242        35  PMPE      C35           -15.6642360489       18.4977416724       11.8268086297  MEMB      35              0.0000000000
      4243        35  PMPE      H5X           -15.8390998378       17.5054042502       11.3588239558  MEMB      35              0.0000000000
      4244        35  PMPE      H5Y           -14.8257117294       18.9264400675       11.2373888363  MEMB      35              0.0000000000
      4245        35  PMPE      C36           -17.0469195276       19.2298429154       11.6636856561  MEMB      35              0.0000000000
      4246        35  PMPE      H6X           -16.9470867826       20.3296430212       11.7853169197  MEMB      35              0.0000000000
      4247        35  PMPE      H6Y           -17.7457348738       18.8363543508       12.4325451306  MEMB      35              0.0000000000
      4248        35  PMPE      C37           -17.6609516986       18.9714941003       10.2013198372  MEMB      35              0.0000000000
      4249        35  PMPE      H7X           -18.7053516780       19.3431049751       10.1274657876  MEMB      35              0.0000000000
      4250        35  PMPE      H7Y           -17.6958941906       17.8643727903       10.1153999037  MEMB      35              0.0000000000
      4251        35  PMPE      C38           -16.8403505325       19.7010924923        9.1521274816  MEMB      35              0.0000000000
      4252        35  PMPE      H8X           -15.7588418352       19.4502009892        9.1107373877  MEMB      35              0.0000000000
      4253        35  PMPE      H8Y           -17.0039561873       20.7894478322        9.3039064420  MEMB      35              0.0000000000
      4254        35  PMPE      C39           -17.2311996364       19.3714278996        7.7568034757  MEMB      35              0.0000000000
      4255        35  PMPE      H9X           -16.9981132296       20.3126939944        7.2145767451  MEMB      35              0.0000000000
      4256        35  PMPE      H9Y           -18.3113584207       19.1276293050        7.6665841563  MEMB      35              0.0000000000
      4257        35  PMPE      C310          -16.4973257006       18.2226845947        7.0324829848  MEMB      35              0.0000000000
      4258        35  PMPE      H10X          -16.4504102680       17.3273671794        7.6886283872  MEMB      35              0.0000000000
      4259        35  PMPE      H10Y          -15.4385654595       18.5300730672        6.8951499487  MEMB      35              0.0000000000
      4260        35  PMPE      C311          -17.1365088894       17.6592566382        5.7547498755  MEMB      35              0.0000000000
      4261        35  PMPE      H11X          -18.1853283493       17.3765688566        5.9879580173  MEMB      35              0.0000000000
      4262        35  PMPE      H11Y          -16.5953368034       16.7506694479        5.4142747201  MEMB      35              0.0000000000
      4263        35  PMPE      C312          -17.2332818962       18.6419620041        4.5449150087  MEMB      35              0.0000000000
      4264        35  PMPE      H12X          -16.2237877318       18.9817542731        4.2290297192  MEMB      35              0.0000000000
      4265        35  PMPE      H12Y          -17.7369998408       19.4940785245        5.0493814474  MEMB      35              0.0000000000
      4266        35  PMPE      C313          -17.9890709485       18.1255778671        3.3496711125  MEMB      35              0.0000000000
      4267        35  PMPE      H13X          -18.1193795223       18.9644347334        2.6329708778  MEMB      35              0.0000000000
      4268        35  PMPE      H13Y          -19.0490206661       17.8428302223        3.5254004964  MEMB      35              0.0000000000
      4269        35  PMPE      C314          -17.1734923049       17.0366540079        2.5524042942  MEMB      35              0.0000000000
      4270        35  PMPE      H14X          -17.0370317292       16.1856841247        3.2535103836  MEMB      35              0.0000000000
      4271        35  PMPE      H14Y          -16.1942369896       17.3427260435        2.1261416091  MEMB      35              0.0000000000
      4272        35  PMPE      C315          -18.0134346516       16.4096396060        1.4414894736  MEMB      35              0.0000000000
      4273        35  PMPE      H15X          -19.0557129965       16.5451561388        1.8015063895  MEMB      35              0.0000000000
      4274        35  PMPE      H15Y          -17.7408275913       15.3388728503        1.3254483648  MEMB      35              0.0000000000
      4275        35  PMPE      C316          -17.8420474388       17.1662327790        0.1121885197  MEMB      35              0.0000000000
      4276        35  PMPE      H16X          -17.7824147915       18.2543476686        0.3284541110  MEMB      35              0.0000000000
      4277        35  PMPE      H16Y          -18.6756144381       16.8749395005       -0.5620776828  MEMB      35              0.0000000000
      4278        35  PMPE      H16Z          -16.8546471500       16.7939556781       -0.2353330870  MEMB      35              0.0000000000
      4279        36  POPE      N             -12.9974332380      -24.4466079297       21.5319553810  MEMB      36              0.0000000000
      4280        36  POPE      HN1           -13.2283049733      -25.3399705334       21.0521621018  MEMB      36              0.0000000000
      4281        36  POPE      HN2           -12.1295938994      -24.0409757317       21.1270883286  MEMB      36              0.0000000000
      4282        36  POPE      HN3           -12.8143166595      -24.5987561044       22.5443382042  MEMB      36              0.0000000000
      4283        36  POPE      C12           -14.0632183451      -23.3293926079       21.4055844084  MEMB      36              0.0000000000
      4284        36  POPE      H12A          -13.6263629708      -22.3196350567       21.5600772032  MEMB      36              0.0000000000
      4285        36  POPE      H12B          -14.7971686389      -23.6021011463       22.1937899638  MEMB      36              0.0000000000
      4286        36  POPE      C11           -14.6510298962      -23.3977311227       19.9330250237  MEMB      36              0.0000000000
      4287        36  POPE      H11A          -15.4809505344      -22.6632410665       19.8550694250  MEMB      36              0.0000000000
      4288        36  POPE      H11B          -15.0084288318      -24.4311043426       19.7362336790  MEMB      36              0.0000000000
      4289        36  POPE      P             -13.5619701765      -22.1462625022       17.9187694277  MEMB      36              0.0000000000
      4290        36  POPE      O13           -12.1143618716      -21.9807653647       17.5200678622  MEMB      36              0.0000000000
      4291        36  POPE      O14           -14.2384028656      -20.9264991450       18.2458044487  MEMB      36              0.0000000000
      4292        36  POPE      O11           -14.2789736575      -22.7785023185       16.5004927869  MEMB      36              0.0000000000
      4293        36  POPE      O12           -13.6911603483      -23.2803182062       18.9443006338  MEMB      36              0.0000000000
      4294        36  POPE      C1            -15.2229381323      -23.7964851004       16.6303533785  MEMB      36              0.0000000000
      4295        36  POPE      HA            -16.0078456428      -23.5075300081       17.3616167507  MEMB      36              0.0000000000
      4296        36  POPE      HB            -14.6552814093      -24.6959980403       16.9512321850  MEMB      36              0.0000000000
      4297        36  POPE      C2            -15.8168038345      -24.1849140947       15.2499902603  MEMB      36              0.0000000000
      4298        36  POPE      HS            -16.3460960006      -25.1499063309       15.4015183354  MEMB      36              0.0000000000
      4299        36  POPE      O21           -14.7386657299      -24.2185333175       14.3029557621  MEMB      36              0.0000000000
      4300        36  POPE      C21           -14.3208972178      -25.3553406248       13.6672951740  MEMB      36              0.0000000000
      4301        36  POPE      O22           -14.7698955305      -26.4975706090       13.8264904386  MEMB      36              0.0000000000
      4302        36  POPE      C22           -13.1936845454      -24.9557010688       12.6486595414  MEMB      36              0.0000000000
      4303        36  POPE      H2R           -13.4960374184      -24.0565900814       12.0702971774  MEMB      36              0.0000000000
      4304        36  POPE      H2S           -13.3407930845      -25.7400154007       11.8756580340  MEMB      36              0.0000000000
      4305        36  POPE      C3            -16.7851820978      -23.1846641039       14.7009907785  MEMB      36              0.0000000000
      4306        36  POPE      HX            -16.2948756385      -22.2210948659       14.4451489987  MEMB      36              0.0000000000
      4307        36  POPE      HY            -17.5411263471      -22.9750917803       15.4877236179  MEMB      36              0.0000000000
      4308        36  POPE      O31           -17.5916135281      -23.7253451715       13.6472742556  MEMB      36              0.0000000000
      4309        36  POPE      C31           -17.1529583681      -23.3343018081       12.4203152183  MEMB      36              0.0000000000
      4310        36  POPE      O32           -16.2121454773      -22.6620030152       12.0961708823  MEMB      36              0.0000000000
      4311        36  POPE      C32           -18.2407004755      -23.9473879141       11.4319182531  MEMB      36              0.0000000000
      4312        36  POPE      H2X           -19.0783773774      -23.2215048723       11.5074948226  MEMB      36              0.0000000000
      4313        36  POPE      H2Y           -18.4795348449      -24.9064242895       11.9393908978  MEMB      36              0.0000000000
      4314        36  POPE      C23           -11.8021301520      -24.8585263812       13.1269301890  MEMB      36              0.0000000000
      4315        36  POPE      H3R           -11.3882305708      -25.7943092659       13.5597337915  MEMB      36              0.0000000000
      4316        36  POPE      H3S           -11.7793309043      -23.9759336051       13.8013418762  MEMB      36              0.0000000000
      4317        36  POPE      C24           -10.7464068818      -24.6845659814       11.9473696211  MEMB      36              0.0000000000
      4318        36  POPE      H4R           -10.3411566566      -25.6111671546       11.4874740303  MEMB      36              0.0000000000
      4319        36  POPE      H4S            -9.8496308091      -24.2283619663       12.4185299272  MEMB      36              0.0000000000
      4320        36  POPE      C25           -11.2223727583      -23.8447143327       10.8055889994  MEMB      36              0.0000000000
      4321        36  POPE      H5R           -11.4318333707      -22.7903245558       11.0861414346  MEMB      36              0.0000000000
      4322        36  POPE      H5S           -12.0719193341      -24.4114680859       10.3681171933  MEMB      36              0.0000000000
      4323        36  POPE      C26           -10.1571165765      -23.8310649161        9.6355933364  MEMB      36              0.0000000000
      4324        36  POPE      H6R           -10.1663229243      -24.8298311316        9.1490727685  MEMB      36              0.0000000000
      4325        36  POPE      H6S            -9.2151552468      -23.7896741740       10.2232295758  MEMB      36              0.0000000000
      4326        36  POPE      C27           -10.2042109876      -22.6148267521        8.7447691699  MEMB      36              0.0000000000
      4327        36  POPE      H7R            -9.2966365718      -22.7816809813        8.1260695331  MEMB      36              0.0000000000
      4328        36  POPE      H7S           -10.1750937426      -21.6168884928        9.2322042186  MEMB      36              0.0000000000
      4329        36  POPE      C28           -11.4324541899      -22.6708927093        7.7408755764  MEMB      36              0.0000000000
      4330        36  POPE      H8R           -12.3005827078      -22.3134434042        8.3349334258  MEMB      36              0.0000000000
      4331        36  POPE      H8S           -11.5868703687      -23.7139113737        7.3907492606  MEMB      36              0.0000000000
      4332        36  POPE      C29           -11.1237724942      -21.7508670101        6.5840757759  MEMB      36              0.0000000000
      4333        36  POPE      H91           -10.6597658265      -20.7890497588        6.8479041131  MEMB      36              0.0000000000
      4334        36  POPE      C210          -11.3218394873      -22.0289157595        5.2369549565  MEMB      36              0.0000000000
      4335        36  POPE      H101          -10.9886119150      -21.2053506063        4.5883410257  MEMB      36              0.0000000000
      4336        36  POPE      C211          -11.9601679684      -23.2690232591        4.5914332146  MEMB      36              0.0000000000
      4337        36  POPE      H11R          -12.6341051886      -23.7682826820        5.3200414829  MEMB      36              0.0000000000
      4338        36  POPE      H11S          -11.2501187075      -24.0850709912        4.3380228795  MEMB      36              0.0000000000
      4339        36  POPE      C212          -12.7082274213      -22.7796905463        3.3584321355  MEMB      36              0.0000000000
      4340        36  POPE      H12R          -11.9275236069      -22.4394316734        2.6449573195  MEMB      36              0.0000000000
      4341        36  POPE      H12S          -13.3851512026      -21.8988461080        3.3440071688  MEMB      36              0.0000000000
      4342        36  POPE      C213          -13.5696785329      -23.9337600065        2.7138927158  MEMB      36              0.0000000000
      4343        36  POPE      H13R          -14.2311972550      -24.4033339880        3.4729804567  MEMB      36              0.0000000000
      4344        36  POPE      H13S          -12.8339244227      -24.6933255514        2.3732356878  MEMB      36              0.0000000000
      4345        36  POPE      C214          -14.3846657373      -23.3620066720        1.5104920440  MEMB      36              0.0000000000
      4346        36  POPE      H14R          -14.6499851880      -24.0544318138        0.6831630654  MEMB      36              0.0000000000
      4347        36  POPE      H14S          -13.7264976558      -22.6034135830        1.0354412908  MEMB      36              0.0000000000
      4348        36  POPE      C215          -15.7441648952      -22.8230012870        1.9886283387  MEMB      36              0.0000000000
      4349        36  POPE      H15R          -15.5371597941      -22.0992179542        2.8057000536  MEMB      36              0.0000000000
      4350        36  POPE      H15S          -16.3112700628      -23.6989459799        2.3699849919  MEMB      36              0.0000000000
      4351        36  POPE      C216          -16.5652443570      -22.1411696935        0.8794312174  MEMB      36              0.0000000000
      4352        36  POPE      H16R          -16.5401574040      -22.8835634197        0.0532687398  MEMB      36              0.0000000000
      4353        36  POPE      H16S          -16.2707217924      -21.0969359130        0.6403636971  MEMB      36              0.0000000000
      4354        36  POPE      C217          -18.0655901192      -22.0034578188        1.2797158223  MEMB      36              0.0000000000
      4355        36  POPE      H17R          -18.5515186893      -23.0012245878        1.2281837988  MEMB      36              0.0000000000
      4356        36  POPE      H17S          -18.5964528772      -21.4044695333        0.5091848165  MEMB      36              0.0000000000
      4357        36  POPE      C218          -18.3787105066      -21.4254884894        2.7101202939  MEMB      36              0.0000000000
      4358        36  POPE      H18R          -19.4860538588      -21.5153141278        2.7035810915  MEMB      36              0.0000000000
      4359        36  POPE      H18S          -17.9871833574      -20.3858036753        2.7192361364  MEMB      36              0.0000000000
      4360        36  POPE      H18T          -17.9569008347      -21.9409230837        3.5993471758  MEMB      36              0.0000000000
      4361        36  POPE      C33           -17.8786183320      -23.9871817127        9.9212556449  MEMB      36              0.0000000000
      4362        36  POPE      H3X           -17.0891204738      -23.2646049379        9.6230994546  MEMB      36              0.0000000000
      4363        36  POPE      H3Y           -18.8370303051      -23.7997085533        9.3915195295  MEMB      36              0.0000000000
      4364        36  POPE      C34           -17.6687021741      -25.4865010356        9.6310641310  MEMB      36              0.0000000000
      4365        36  POPE      H4X           -18.5420759485      -26.0586399237       10.0107953378  MEMB      36              0.0000000000
      4366        36  POPE      H4Y           -16.7550800047      -25.7868358161       10.1873139339  MEMB      36              0.0000000000
      4367        36  POPE      C35           -17.2041017373      -25.8004507720        8.1841298064  MEMB      36              0.0000000000
      4368        36  POPE      H5X           -18.0144841971      -25.4736171189        7.4979949399  MEMB      36              0.0000000000
      4369        36  POPE      H5Y           -17.3069097037      -26.9034794886        8.0999884438  MEMB      36              0.0000000000
      4370        36  POPE      C36           -15.8050905280      -25.3499924534        7.6819368730  MEMB      36              0.0000000000
      4371        36  POPE      H6X           -15.6886243503      -25.7191865493        6.6405660561  MEMB      36              0.0000000000
      4372        36  POPE      H6Y           -15.0575190600      -25.8839792263        8.3066899078  MEMB      36              0.0000000000
      4373        36  POPE      C37           -15.4383330397      -23.7874080027        7.7383987470  MEMB      36              0.0000000000
      4374        36  POPE      H7X           -14.3929246477      -23.8074029647        7.3628426744  MEMB      36              0.0000000000
      4375        36  POPE      H7Y           -15.3612286783      -23.5532286400        8.8216970963  MEMB      36              0.0000000000
      4376        36  POPE      C38           -16.2274076774      -22.9267171805        6.7694068981  MEMB      36              0.0000000000
      4377        36  POPE      H8X           -17.1567798309      -22.6865348333        7.3287821248  MEMB      36              0.0000000000
      4378        36  POPE      H8Y           -16.4117435383      -23.5112260724        5.8427513114  MEMB      36              0.0000000000
      4379        36  POPE      C39           -15.5413227292      -21.5525151528        6.5804651373  MEMB      36              0.0000000000
      4380        36  POPE      H9X           -14.5460318397      -21.6616955816        6.0990123874  MEMB      36              0.0000000000
      4381        36  POPE      H9Y           -15.5253090573      -21.1130991157        7.6007485891  MEMB      36              0.0000000000
      4382        36  POPE      C310          -16.4795275033      -20.5786318905        5.7519327358  MEMB      36              0.0000000000
      4383        36  POPE      H10X          -17.4791741723      -20.4908006814        6.2287060953  MEMB      36              0.0000000000
      4384        36  POPE      H10Y          -16.5875099449      -21.0214084753        4.7387147238  MEMB      36              0.0000000000
      4385        36  POPE      C311          -16.0075919570      -19.1305539119        5.5985367060  MEMB      36              0.0000000000
      4386        36  POPE      H11X          -15.3727198934      -18.9185961575        6.4852904630  MEMB      36              0.0000000000
      4387        36  POPE      H11Y          -16.9381773085      -18.5259752878        5.6516048476  MEMB      36              0.0000000000
      4388        36  POPE      C312          -15.3688204053      -18.7203996814        4.2492105648  MEMB      36              0.0000000000
      4389        36  POPE      H12X          -15.5082839666      -17.6329845582        4.0692112116  MEMB      36              0.0000000000
      4390        36  POPE      H12Y          -15.7797687818      -19.1647625782        3.3175548152  MEMB      36              0.0000000000
      4391        36  POPE      C313          -13.8573540497      -18.9688908278        4.1136394474  MEMB      36              0.0000000000
      4392        36  POPE      H13X          -13.7111118149      -20.0623350630        4.2452224839  MEMB      36              0.0000000000
      4393        36  POPE      H13Y          -13.3471812193      -18.4889209582        4.9760046937  MEMB      36              0.0000000000
      4394        36  POPE      C314          -13.1976734991      -18.6187561323        2.7253114306  MEMB      36              0.0000000000
      4395        36  POPE      H14X          -13.3370269663      -17.5510833966        2.4514936741  MEMB      36              0.0000000000
      4396        36  POPE      H14Y          -13.7297856206      -19.2510197442        1.9827345534  MEMB      36              0.0000000000
      4397        36  POPE      C315          -11.6829609710      -18.8501694380        2.6086482951  MEMB      36              0.0000000000
      4398        36  POPE      H15X          -11.4688130258      -19.9269154138        2.7791767091  MEMB      36              0.0000000000
      4399        36  POPE      H15Y          -11.2165238726      -18.3167930309        3.4643734650  MEMB      36              0.0000000000
      4400        36  POPE      C316          -10.9669599422      -18.5124758788        1.2631844955  MEMB      36              0.0000000000
      4401        36  POPE      H16X           -9.8739039460      -18.4656873003        1.4564712215  MEMB      36              0.0000000000
      4402        36  POPE      H16Y          -11.1917761859      -17.4739819875        0.9386716863  MEMB      36              0.0000000000
      4403        36  POPE      H16Z          -11.1519903226      -19.2604863974        0.4628322774  MEMB      36              0.0000000000
      4404        37  OYPE      N              -4.0114274903      -28.0569848638       16.9970618357  MEMB      37              0.0000000000
      4405        37  OYPE      HN1            -5.0096203430      -28.0746179234       16.7056858751  MEMB      37              0.0000000000
      4406        37  OYPE      HN2            -3.3967931839      -27.8894190753       16.1750236959  MEMB      37              0.0000000000
      4407        37  OYPE      HN3            -3.7407607491      -29.0016158616       17.3376671102  MEMB      37              0.0000000000
      4408        37  OYPE      C12            -3.8850628107      -26.9494864790       18.0331806690  MEMB      37              0.0000000000
      4409        37  OYPE      H12A           -4.2010170406      -25.9957852374       17.5588940118  MEMB      37              0.0000000000
      4410        37  OYPE      H12B           -2.8107338854      -27.0118304835       18.3093180351  MEMB      37              0.0000000000
      4411        37  OYPE      C11            -4.6430878224      -27.1352332831       19.3470152140  MEMB      37              0.0000000000
      4412        37  OYPE      H11A           -4.3371452751      -26.2755407230       19.9807729966  MEMB      37              0.0000000000
      4413        37  OYPE      H11B           -4.3761362597      -28.0403581367       19.9333657847  MEMB      37              0.0000000000
      4414        37  OYPE      P              -6.8965462554      -25.9776659523       19.5938026431  MEMB      37              0.0000000000
      4415        37  OYPE      O13            -6.4019779353      -24.6696285841       19.0541234302  MEMB      37              0.0000000000
      4416        37  OYPE      O14            -6.9546532744      -26.1440772745       21.0862163850  MEMB      37              0.0000000000
      4417        37  OYPE      O11            -8.3544085481      -26.2041759852       18.8845745996  MEMB      37              0.0000000000
      4418        37  OYPE      O12            -6.0267401623      -27.2347979561       19.0040252100  MEMB      37              0.0000000000
      4419        37  OYPE      C1             -8.6191313574      -27.4700242565       18.3736514089  MEMB      37              0.0000000000
      4420        37  OYPE      HA             -9.6831912392      -27.7505052839       18.5267135204  MEMB      37              0.0000000000
      4421        37  OYPE      HB             -8.0819813758      -28.2917084105       18.8938687111  MEMB      37              0.0000000000
      4422        37  OYPE      C2             -8.3420755051      -27.4671581219       16.8883030070  MEMB      37              0.0000000000
      4423        37  OYPE      HS             -7.2799706439      -27.1734150433       16.7469904705  MEMB      37              0.0000000000
      4424        37  OYPE      O21            -9.1889146389      -26.5482394579       16.1947390828  MEMB      37              0.0000000000
      4425        37  OYPE      C21            -8.7394391075      -25.7968286866       15.2510719182  MEMB      37              0.0000000000
      4426        37  OYPE      O22            -7.6305593396      -25.8738312529       14.8092755969  MEMB      37              0.0000000000
      4427        37  OYPE      C22            -9.8387836764      -24.8777759391       14.7645389478  MEMB      37              0.0000000000
      4428        37  OYPE      H2R           -10.1334416684      -24.1854690525       15.5819795556  MEMB      37              0.0000000000
      4429        37  OYPE      H2S           -10.7712458199      -25.4295618834       14.5188409705  MEMB      37              0.0000000000
      4430        37  OYPE      C3             -8.4889569324      -28.9126360335       16.2167480963  MEMB      37              0.0000000000
      4431        37  OYPE      HX             -9.5796148107      -29.0566854648       16.0617116061  MEMB      37              0.0000000000
      4432        37  OYPE      HY             -8.0622870914      -29.6929571160       16.8826106815  MEMB      37              0.0000000000
      4433        37  OYPE      O31            -7.8967774493      -28.8696515979       14.9049773934  MEMB      37              0.0000000000
      4434        37  OYPE      C31            -6.6627412210      -29.3957575142       14.7025206814  MEMB      37              0.0000000000
      4435        37  OYPE      O32            -5.9464942316      -29.8488323988       15.5421748207  MEMB      37              0.0000000000
      4436        37  OYPE      C32            -6.4223924298      -29.4776222860       13.1963956392  MEMB      37              0.0000000000
      4437        37  OYPE      H2X            -6.6553126301      -30.5278651609       12.9188001102  MEMB      37              0.0000000000
      4438        37  OYPE      H2Y            -7.0975069863      -28.7172482062       12.7487655921  MEMB      37              0.0000000000
      4439        37  OYPE      C23            -9.3619905942      -24.0886046896       13.4817262357  MEMB      37              0.0000000000
      4440        37  OYPE      H3R            -8.4724502323      -23.4546564967       13.6845774563  MEMB      37              0.0000000000
      4441        37  OYPE      H3S           -10.1873708737      -23.3913746213       13.2230026021  MEMB      37              0.0000000000
      4442        37  OYPE      C24            -9.4891508212      -24.8958111729       12.2724695504  MEMB      37              0.0000000000
      4443        37  OYPE      H4R            -9.5738395488      -24.1947312449       11.4147772313  MEMB      37              0.0000000000
      4444        37  OYPE      H4S           -10.4779743512      -25.3965133763       12.3489317463  MEMB      37              0.0000000000
      4445        37  OYPE      C25            -8.3896222980      -25.9660447839       11.8978510435  MEMB      37              0.0000000000
      4446        37  OYPE      H5R            -8.3469515727      -26.7086590945       12.7230930004  MEMB      37              0.0000000000
      4447        37  OYPE      H5S            -7.4063075262      -25.4602527044       11.7902062260  MEMB      37              0.0000000000
      4448        37  OYPE      C26            -8.6615294360      -26.6963781680       10.5920480356  MEMB      37              0.0000000000
      4449        37  OYPE      H6R            -9.5726158708      -27.3280320932       10.5195484454  MEMB      37              0.0000000000
      4450        37  OYPE      H6S            -7.8952517803      -27.4954122454       10.4988592112  MEMB      37              0.0000000000
      4451        37  OYPE      C27            -8.4133235195      -25.7258096014        9.4165816743  MEMB      37              0.0000000000
      4452        37  OYPE      H7R            -7.5465054237      -25.1221734884        9.7609222536  MEMB      37              0.0000000000
      4453        37  OYPE      H7S            -9.2339671514      -24.9775392876        9.3856436302  MEMB      37              0.0000000000
      4454        37  OYPE      C28            -8.1023407365      -26.3335787497        8.0159970445  MEMB      37              0.0000000000
      4455        37  OYPE      H8R            -7.4540845534      -27.2230771536        8.1672501706  MEMB      37              0.0000000000
      4456        37  OYPE      H8S            -7.4092606862      -25.7073662754        7.4144833227  MEMB      37              0.0000000000
      4457        37  OYPE      C29            -9.3183693730      -26.6112442962        7.2376850119  MEMB      37              0.0000000000
      4458        37  OYPE      H9R           -10.0507282514      -25.7951625015        7.1501547220  MEMB      37              0.0000000000
      4459        37  OYPE      C210           -9.6887759068      -27.7433359619        6.5912709374  MEMB      37              0.0000000000
      4460        37  OYPE      H10R          -10.6433892178      -27.7322952052        6.0448359122  MEMB      37              0.0000000000
      4461        37  OYPE      C211           -8.9125786695      -29.0103092053        6.5440314779  MEMB      37              0.0000000000
      4462        37  OYPE      H11R           -9.5503814953      -29.8746261593        6.8277297848  MEMB      37              0.0000000000
      4463        37  OYPE      H11S           -8.0537537220      -28.9440117396        7.2457049550  MEMB      37              0.0000000000
      4464        37  OYPE      C212           -8.2358989718      -29.4749771226        5.2225717999  MEMB      37              0.0000000000
      4465        37  OYPE      H12R           -7.4259565986      -30.1939779527        5.4702655284  MEMB      37              0.0000000000
      4466        37  OYPE      H12S           -7.8290730765      -28.5232365101        4.8188349134  MEMB      37              0.0000000000
      4467        37  OYPE      C213           -9.2588210187      -30.0680803989        4.2678513383  MEMB      37              0.0000000000
      4468        37  OYPE      H13R          -10.1524311975      -29.4084158856        4.2928383593  MEMB      37              0.0000000000
      4469        37  OYPE      H13S           -9.4635018356      -31.1018962708        4.6194918876  MEMB      37              0.0000000000
      4470        37  OYPE      C214           -8.8128984904      -29.9627278785        2.8389749615  MEMB      37              0.0000000000
      4471        37  OYPE      H14R           -8.0906169628      -30.7149925708        2.4559215699  MEMB      37              0.0000000000
      4472        37  OYPE      H14S           -8.2192247336      -29.0264856549        2.7660163259  MEMB      37              0.0000000000
      4473        37  OYPE      C215           -9.8968836761      -30.0550537814        1.7851036425  MEMB      37              0.0000000000
      4474        37  OYPE      H15R           -9.6702369873      -29.4314364630        0.8940068764  MEMB      37              0.0000000000
      4475        37  OYPE      H15S          -10.8918519761      -29.7198302368        2.1483993095  MEMB      37              0.0000000000
      4476        37  OYPE      C216          -10.1168497162      -31.4836734840        1.2894280333  MEMB      37              0.0000000000
      4477        37  OYPE      H16R           -9.2738984242      -31.7781550292        0.6283424150  MEMB      37              0.0000000000
      4478        37  OYPE      H16S          -11.0215779231      -31.6091680112        0.6569411354  MEMB      37              0.0000000000
      4479        37  OYPE      H16T          -10.0028622149      -32.1745234999        2.1520129485  MEMB      37              0.0000000000
      4480        37  OYPE      C33            -4.9681770409      -29.2377385857       12.8386030244  MEMB      37              0.0000000000
      4481        37  OYPE      H3X            -4.9273236415      -29.2320589049       11.7283689195  MEMB      37              0.0000000000
      4482        37  OYPE      H3Y            -4.3322102521      -30.0866376627       13.1691141381  MEMB      37              0.0000000000
      4483        37  OYPE      C34            -4.3608367466      -27.9314048169       13.1919080964  MEMB      37              0.0000000000
      4484        37  OYPE      H4X            -4.9503251682      -26.9989283809       13.0603331541  MEMB      37              0.0000000000
      4485        37  OYPE      H4Y            -4.4681734094      -27.9500071938       14.2975543294  MEMB      37              0.0000000000
      4486        37  OYPE      C35            -2.9037922115      -27.5943024269       12.6872530341  MEMB      37              0.0000000000
      4487        37  OYPE      H5X            -2.2663274370      -28.3905412606       13.1276653367  MEMB      37              0.0000000000
      4488        37  OYPE      H5Y            -2.6620260427      -26.5619177408       13.0189936747  MEMB      37              0.0000000000
      4489        37  OYPE      C36            -2.7489071324      -27.5374708808       11.1898373089  MEMB      37              0.0000000000
      4490        37  OYPE      H6X            -1.7937094372      -27.0443360991       10.9092374742  MEMB      37              0.0000000000
      4491        37  OYPE      H6Y            -2.6935621240      -28.5424592697       10.7194584781  MEMB      37              0.0000000000
      4492        37  OYPE      C37            -3.8005813731      -26.6897436089       10.4014481995  MEMB      37              0.0000000000
      4493        37  OYPE      H7X            -4.8260239499      -27.1067957895       10.4955549666  MEMB      37              0.0000000000
      4494        37  OYPE      H7Y            -3.9936820358      -25.7582321934       10.9753125388  MEMB      37              0.0000000000
      4495        37  OYPE      C38            -3.5248480039      -26.3713407618        8.8996476400  MEMB      37              0.0000000000
      4496        37  OYPE      H8X            -4.2062826676      -25.5071389855        8.7475850307  MEMB      37              0.0000000000
      4497        37  OYPE      H8Y            -2.4609137253      -26.0712226190        8.7887696256  MEMB      37              0.0000000000
      4498        37  OYPE      C39            -3.7857321014      -27.4464684229        7.8086291396  MEMB      37              0.0000000000
      4499        37  OYPE      H9X            -3.9411016801      -28.4185048313        8.2995524377  MEMB      37              0.0000000000
      4500        37  OYPE      C310           -4.0640810235      -27.3834574724        6.4900604122  MEMB      37              0.0000000000
      4501        37  OYPE      H10X           -4.1885680874      -28.2981480180        5.8918598572  MEMB      37              0.0000000000
      4502        37  OYPE      C311           -4.1588605409      -26.1036344002        5.7374116603  MEMB      37              0.0000000000
      4503        37  OYPE      H11X           -5.1925014132      -26.1398319204        5.3317055178  MEMB      37              0.0000000000
      4504        37  OYPE      H11Y           -4.0563857844      -25.1941559675        6.3672282946  MEMB      37              0.0000000000
      4505        37  OYPE      C312           -3.3034278328      -26.1286246318        4.4847026958  MEMB      37              0.0000000000
      4506        37  OYPE      H12X           -2.5581145800      -26.9467849886        4.5818763876  MEMB      37              0.0000000000
      4507        37  OYPE      H12Y           -2.6949381234      -25.1990757450        4.4844043751  MEMB      37              0.0000000000
      4508        37  OYPE      C313           -4.1191660233      -26.3083191482        3.1472287351  MEMB      37              0.0000000000
      4509        37  OYPE      H13X           -4.8546957364      -25.4880895019        3.0039092947  MEMB      37              0.0000000000
      4510        37  OYPE      H13Y           -3.3164661364      -26.0469291973        2.4249613671  MEMB      37              0.0000000000
      4511        37  OYPE      C314           -4.7064656907      -27.6571519411        2.8196360081  MEMB      37              0.0000000000
      4512        37  OYPE      H14X           -5.2537658579      -28.0482931362        3.7038255957  MEMB      37              0.0000000000
      4513        37  OYPE      H14Y           -3.9293492665      -28.4288347983        2.6327757997  MEMB      37              0.0000000000
      4514        37  OYPE      C315           -5.7917017987      -27.7042628459        1.7027131696  MEMB      37              0.0000000000
      4515        37  OYPE      H15X           -6.6791410520      -27.0620142216        1.8878843748  MEMB      37              0.0000000000
      4516        37  OYPE      H15Y           -6.1551487972      -28.7525208244        1.6445542462  MEMB      37              0.0000000000
      4517        37  OYPE      C316           -5.1547577846      -27.3605312883        0.3330999757  MEMB      37              0.0000000000
      4518        37  OYPE      H16X           -4.0993461745      -27.7071414081        0.3160931385  MEMB      37              0.0000000000
      4519        37  OYPE      H16Y           -5.1695965380      -26.2526068327        0.2518339922  MEMB      37              0.0000000000
      4520        37  OYPE      C317           -6.0463843633      -27.8931526771       -0.8474180015  MEMB      37              0.0000000000
      4521        37  OYPE      H17X           -7.1088304693      -27.9780937628       -0.5338674016  MEMB      37              0.0000000000
      4522        37  OYPE      H17Y           -5.8197179091      -28.9514673733       -1.0982428615  MEMB      37              0.0000000000
      4523        37  OYPE      C318           -6.0872095908      -26.9767591381       -2.0562294569  MEMB      37              0.0000000000
      4524        37  OYPE      H18X           -6.8262494750      -27.3216339451       -2.8106835085  MEMB      37              0.0000000000
      4525        37  OYPE      H18Y           -6.3659397633      -25.9586983100       -1.7095565569  MEMB      37              0.0000000000
      4526        37  OYPE      H18Z           -5.1126959359      -26.9259078371       -2.5873206017  MEMB      37              0.0000000000
      4527        38  PMPE      N               8.2167003830      -24.8484327060       20.2313247885  MEMB      38              0.0000000000
      4528        38  PMPE      HN1             8.0109929287      -24.0020660559       19.6630396929  MEMB      38              0.0000000000
      4529        38  PMPE      HN2             7.7742518117      -25.6762570266       19.7835008227  MEMB      38              0.0000000000
      4530        38  PMPE      HN3             7.8854745224      -24.7840788431       21.2150665640  MEMB      38              0.0000000000
      4531        38  PMPE      C12             9.6974937349      -25.0930234479       20.2406973787  MEMB      38              0.0000000000
      4532        38  PMPE      H12A           10.1182227566      -25.5970345268       21.1369567685  MEMB      38              0.0000000000
      4533        38  PMPE      H12B           10.1202911930      -24.0656693502       20.2303583413  MEMB      38              0.0000000000
      4534        38  PMPE      C11            10.1430458046      -25.7881877508       18.9829692707  MEMB      38              0.0000000000
      4535        38  PMPE      H11A            9.7797128927      -25.3444485624       18.0314411716  MEMB      38              0.0000000000
      4536        38  PMPE      H11B            9.8107054419      -26.8457696072       18.9095422539  MEMB      38              0.0000000000
      4537        38  PMPE      P              12.5834896538      -25.0849567575       18.4521543243  MEMB      38              0.0000000000
      4538        38  PMPE      O13            12.6794445814      -25.1685098535       16.9745765417  MEMB      38              0.0000000000
      4539        38  PMPE      O14            13.8040386848      -25.3198430849       19.2214214161  MEMB      38              0.0000000000
      4540        38  PMPE      O11            11.9940736140      -23.5982916491       18.8251739022  MEMB      38              0.0000000000
      4541        38  PMPE      O12            11.5382135417      -25.9726171531       19.0716823817  MEMB      38              0.0000000000
      4542        38  PMPE      C1             13.0033681590      -22.5339517650       18.5084146615  MEMB      38              0.0000000000
      4543        38  PMPE      HA             14.0107692821      -22.7234411086       18.0799782769  MEMB      38              0.0000000000
      4544        38  PMPE      HB             13.1964099176      -21.9791431322       19.4514116369  MEMB      38              0.0000000000
      4545        38  PMPE      C2             12.3795140825      -21.5880703904       17.3638267876  MEMB      38              0.0000000000
      4546        38  PMPE      HS             11.6938229111      -20.8756907871       17.8704471229  MEMB      38              0.0000000000
      4547        38  PMPE      O21            11.6916843086      -22.3773981782       16.3316522709  MEMB      38              0.0000000000
      4548        38  PMPE      C21            10.7090074159      -21.8370427111       15.7246304770  MEMB      38              0.0000000000
      4549        38  PMPE      O22            10.3504971510      -20.6846470014       15.8222225301  MEMB      38              0.0000000000
      4550        38  PMPE      C22             9.9978497803      -22.9155291739       14.9007011413  MEMB      38              0.0000000000
      4551        38  PMPE      H2R             9.0798534187      -23.2140628241       15.4506840972  MEMB      38              0.0000000000
      4552        38  PMPE      H2S            10.6618131948      -23.7770978413       14.6744865573  MEMB      38              0.0000000000
      4553        38  PMPE      C3             13.4877636473      -20.7094721519       16.6641318193  MEMB      38              0.0000000000
      4554        38  PMPE      HX             13.8266765009      -19.9283196383       17.3777563581  MEMB      38              0.0000000000
      4555        38  PMPE      HY             12.9478198329      -20.1018959723       15.9067461096  MEMB      38              0.0000000000
      4556        38  PMPE      O31            14.5649429885      -21.5695569753       16.1256899716  MEMB      38              0.0000000000
      4557        38  PMPE      C31            14.4253199412      -21.9872486516       14.8384289394  MEMB      38              0.0000000000
      4558        38  PMPE      O32            13.4360443079      -21.7738957696       14.1943871592  MEMB      38              0.0000000000
      4559        38  PMPE      C32            15.6248131584      -22.8228254879       14.4657052263  MEMB      38              0.0000000000
      4560        38  PMPE      H2X            15.7177866008      -23.5328618699       15.3151315348  MEMB      38              0.0000000000
      4561        38  PMPE      H2Y            16.5491590822      -22.2084269042       14.4165106921  MEMB      38              0.0000000000
      4562        38  PMPE      C23             9.5957754623      -22.3360073157       13.5611525139  MEMB      38              0.0000000000
      4563        38  PMPE      H3R            10.4833428994      -21.9647740773       13.0055172470  MEMB      38              0.0000000000
      4564        38  PMPE      H3S             9.0307249809      -21.3868456066       13.6800268843  MEMB      38              0.0000000000
      4565        38  PMPE      C24             8.7186747956      -23.3221780251       12.7842761636  MEMB      38              0.0000000000
      4566        38  PMPE      H4R             8.1549571227      -22.7628688037       12.0072841135  MEMB      38              0.0000000000
      4567        38  PMPE      H4S             7.9589623609      -23.8262402663       13.4191617454  MEMB      38              0.0000000000
      4568        38  PMPE      C25             9.4608943222      -24.4700989172       12.0443486448  MEMB      38              0.0000000000
      4569        38  PMPE      H5R             9.7723142099      -25.2212792641       12.8013602991  MEMB      38              0.0000000000
      4570        38  PMPE      H5S            10.4016646670      -24.0342686444       11.6451942117  MEMB      38              0.0000000000
      4571        38  PMPE      C26             8.6555656414      -25.0559510880       10.9475271575  MEMB      38              0.0000000000
      4572        38  PMPE      H6R             7.6563775855      -25.3911003149       11.2991228597  MEMB      38              0.0000000000
      4573        38  PMPE      H6S             9.1863448674      -25.9782344374       10.6281718249  MEMB      38              0.0000000000
      4574        38  PMPE      C27             8.6503517473      -24.2346929490        9.6733949033  MEMB      38              0.0000000000
      4575        38  PMPE      H7R             9.7285963031      -24.1320250333        9.4260711205  MEMB      38              0.0000000000
      4576        38  PMPE      H7S             8.1286315142      -23.2778795842        9.8893520690  MEMB      38              0.0000000000
      4577        38  PMPE      C28             7.8701335095      -24.9036620496        8.5028972556  MEMB      38              0.0000000000
      4578        38  PMPE      H8R             7.7073363216      -24.1419553909        7.7106726502  MEMB      38              0.0000000000
      4579        38  PMPE      H8S             6.8900504657      -25.2435846409        8.9006549903  MEMB      38              0.0000000000
      4580        38  PMPE      C29             8.5685239595      -26.1014546611        7.8320884274  MEMB      38              0.0000000000
      4581        38  PMPE      H9R             8.9070526493      -26.8798022996        8.5489531704  MEMB      38              0.0000000000
      4582        38  PMPE      C217            9.5252968322      -25.8667802252        6.7033652791  MEMB      38              0.0000000000
      4583        38  PMPE      H17R           10.2737221598      -26.6482235710        6.6575966243  MEMB      38              0.0000000000
      4584        38  PMPE      H17S            9.4384106566      -24.9663963957        6.1078417076  MEMB      38              0.0000000000
      4585        38  PMPE      C210            8.1359218068      -26.5915822551        6.4606934072  MEMB      38              0.0000000000
      4586        38  PMPE      H10R            8.0586717680      -27.6967834037        6.3777277872  MEMB      38              0.0000000000
      4587        38  PMPE      C211            7.2658011127      -25.7073128845        5.5445985669  MEMB      38              0.0000000000
      4588        38  PMPE      H11R            7.5159344514      -24.6255185503        5.5830069885  MEMB      38              0.0000000000
      4589        38  PMPE      H11S            6.2642548454      -25.7384113974        6.0244517281  MEMB      38              0.0000000000
      4590        38  PMPE      C212            6.9365196279      -26.2817561687        4.1518239047  MEMB      38              0.0000000000
      4591        38  PMPE      H12R            5.8922372860      -26.0525358892        3.8497416939  MEMB      38              0.0000000000
      4592        38  PMPE      H12S            7.0081558287      -27.3677684997        4.3749102390  MEMB      38              0.0000000000
      4593        38  PMPE      C213            7.9810174483      -25.9492715790        2.9493672632  MEMB      38              0.0000000000
      4594        38  PMPE      H13R            9.0412864035      -25.9556854990        3.2811945777  MEMB      38              0.0000000000
      4595        38  PMPE      H13S            7.8582336654      -24.9328562333        2.5179208132  MEMB      38              0.0000000000
      4596        38  PMPE      C214            7.7649502637      -27.0631981608        1.8529626007  MEMB      38              0.0000000000
      4597        38  PMPE      H14R            6.7109527582      -26.9750695170        1.5128993765  MEMB      38              0.0000000000
      4598        38  PMPE      H14S            7.9545788925      -28.0430062873        2.3411622230  MEMB      38              0.0000000000
      4599        38  PMPE      C215            8.6751251529      -26.8980534198        0.6778130041  MEMB      38              0.0000000000
      4600        38  PMPE      H15R            9.7250799590      -26.9057640263        1.0409322696  MEMB      38              0.0000000000
      4601        38  PMPE      H15S            8.5249041091      -25.8836931444        0.2502276157  MEMB      38              0.0000000000
      4602        38  PMPE      C216            8.4945171867      -28.0766319001       -0.3440349464  MEMB      38              0.0000000000
      4603        38  PMPE      H16R            7.4048025470      -28.2739338530       -0.4330045573  MEMB      38              0.0000000000
      4604        38  PMPE      H16S            8.7854882287      -27.8273167340       -1.3868659297  MEMB      38              0.0000000000
      4605        38  PMPE      H16T            9.0963040941      -28.9402623678        0.0113764399  MEMB      38              0.0000000000
      4606        38  PMPE      C33            15.3685916109      -23.6784594397       13.1968166813  MEMB      38              0.0000000000
      4607        38  PMPE      H3X            14.3816233382      -24.1885619251       13.2000157440  MEMB      38              0.0000000000
      4608        38  PMPE      H3Y            16.1677695793      -24.4487445696       13.2447355834  MEMB      38              0.0000000000
      4609        38  PMPE      C34            15.5816432743      -22.9495397495       11.8495117965  MEMB      38              0.0000000000
      4610        38  PMPE      H4X            16.4027030678      -22.2155257989       11.9958163494  MEMB      38              0.0000000000
      4611        38  PMPE      H4Y            14.6486312870      -22.4182183941       11.5640169125  MEMB      38              0.0000000000
      4612        38  PMPE      C35            15.9015636380      -23.9714446505       10.7049349403  MEMB      38              0.0000000000
      4613        38  PMPE      H5X            16.8728130126      -24.4182115902       11.0072509064  MEMB      38              0.0000000000
      4614        38  PMPE      H5Y            16.0941413157      -23.2966527872        9.8436038513  MEMB      38              0.0000000000
      4615        38  PMPE      C36            14.8014429518      -24.9687402949       10.3696899257  MEMB      38              0.0000000000
      4616        38  PMPE      H6X            14.5593967837      -25.7211394930       11.1504781020  MEMB      38              0.0000000000
      4617        38  PMPE      H6Y            15.0154559449      -25.5591885020        9.4532341734  MEMB      38              0.0000000000
      4618        38  PMPE      C37            13.4141148865      -24.2900296334       10.1103117068  MEMB      38              0.0000000000
      4619        38  PMPE      H7X            13.0963232873      -23.9690690998       11.1253551774  MEMB      38              0.0000000000
      4620        38  PMPE      H7Y            12.6548791246      -25.0556490759        9.8425263860  MEMB      38              0.0000000000
      4621        38  PMPE      C38            13.3999106980      -23.2791345642        8.9521053156  MEMB      38              0.0000000000
      4622        38  PMPE      H8X            14.1642667699      -22.5146426466        9.2082944782  MEMB      38              0.0000000000
      4623        38  PMPE      H8Y            12.4105412941      -22.7778071174        8.8877627631  MEMB      38              0.0000000000
      4624        38  PMPE      C39            13.5777972337      -24.0916222455        7.6237862782  MEMB      38              0.0000000000
      4625        38  PMPE      H9X            12.8335118584      -24.9102571890        7.5228046917  MEMB      38              0.0000000000
      4626        38  PMPE      H9Y            14.6079225444      -24.5046610406        7.5731746077  MEMB      38              0.0000000000
      4627        38  PMPE      C310           13.4988944203      -23.1029191000        6.4269444611  MEMB      38              0.0000000000
      4628        38  PMPE      H10X           14.3666727461      -22.4097489679        6.3987177369  MEMB      38              0.0000000000
      4629        38  PMPE      H10Y           12.5393607109      -22.5430294499        6.4387645028  MEMB      38              0.0000000000
      4630        38  PMPE      C311           13.7497939401      -23.8657069962        5.1232564281  MEMB      38              0.0000000000
      4631        38  PMPE      H11X           14.4728957548      -24.6776530400        5.3517046684  MEMB      38              0.0000000000
      4632        38  PMPE      H11Y           14.2584223580      -23.1663419202        4.4257556894  MEMB      38              0.0000000000
      4633        38  PMPE      C312           12.5541936584      -24.6122371336        4.4195480119  MEMB      38              0.0000000000
      4634        38  PMPE      H12X           11.6675559730      -23.9740653880        4.2172331492  MEMB      38              0.0000000000
      4635        38  PMPE      H12Y           12.2877591515      -25.4088403894        5.1467050862  MEMB      38              0.0000000000
      4636        38  PMPE      C313           12.9534663479      -25.2862279805        3.0747547437  MEMB      38              0.0000000000
      4637        38  PMPE      H13X           12.1281765841      -25.8448523318        2.5836783318  MEMB      38              0.0000000000
      4638        38  PMPE      H13Y           13.9084569826      -25.8422577866        3.1894039703  MEMB      38              0.0000000000
      4639        38  PMPE      C314           13.3470135880      -24.2651932844        2.0241147212  MEMB      38              0.0000000000
      4640        38  PMPE      H14X           13.8527639874      -24.6756994093        1.1241025163  MEMB      38              0.0000000000
      4641        38  PMPE      H14Y           14.2523843759      -23.7131461884        2.3555778230  MEMB      38              0.0000000000
      4642        38  PMPE      C315           12.3372648069      -23.2901833282        1.4675788974  MEMB      38              0.0000000000
      4643        38  PMPE      H15X           12.8354477136      -22.6225084405        0.7324980099  MEMB      38              0.0000000000
      4644        38  PMPE      H15Y           11.9795299709      -22.7503035303        2.3702836857  MEMB      38              0.0000000000
      4645        38  PMPE      C316           11.1597725854      -23.8991566205        0.7693240599  MEMB      38              0.0000000000
      4646        38  PMPE      H16X           10.7633007829      -23.1119006339        0.0930400360  MEMB      38              0.0000000000
      4647        38  PMPE      H16Y           10.4697164793      -24.2249465069        1.5767927806  MEMB      38              0.0000000000
      4648        38  PMPE      H16Z           11.5944261955      -24.7347559193        0.1801122112  MEMB      38              0.0000000000
      4649        39  PMPE      N              30.8136447537        2.5247034016       18.1058240638  MEMB      39              0.0000000000
      4650        39  PMPE      HN1            31.1811514848        3.1992315778       17.4047174532  MEMB      39              0.0000000000
      4651        39  PMPE      HN2            31.6432167403        2.0919868702       18.5598798526  MEMB      39              0.0000000000
      4652        39  PMPE      HN3            30.2550986912        1.8149544670       17.5901857155  MEMB      39              0.0000000000
      4653        39  PMPE      C12            29.8877282055        3.2774934044       19.0821029733  MEMB      39              0.0000000000
      4654        39  PMPE      H12A           30.0753788575        4.3305138215       18.7816762948  MEMB      39              0.0000000000
      4655        39  PMPE      H12B           30.3000926330        3.2525094971       20.1134382513  MEMB      39              0.0000000000
      4656        39  PMPE      C11            28.4733297186        2.8164549950       18.9031479201  MEMB      39              0.0000000000
      4657        39  PMPE      H11A           28.3874403967        1.7461179094       19.1883188848  MEMB      39              0.0000000000
      4658        39  PMPE      H11B           28.2459383510        2.8184486420       17.8156691094  MEMB      39              0.0000000000
      4659        39  PMPE      P              26.0945848364        3.8494418822       19.2219948867  MEMB      39              0.0000000000
      4660        39  PMPE      O13            25.4813622751        4.7578838842       20.1462031892  MEMB      39              0.0000000000
      4661        39  PMPE      O14            25.3859146329        2.5575140853       18.9314514227  MEMB      39              0.0000000000
      4662        39  PMPE      O11            26.2552961296        4.6644210686       17.9140803529  MEMB      39              0.0000000000
      4663        39  PMPE      O12            27.5535066447        3.5675597287       19.6951951941  MEMB      39              0.0000000000
      4664        39  PMPE      C1             27.0991104568        5.7987329582       17.7482971649  MEMB      39              0.0000000000
      4665        39  PMPE      HA             28.0613427929        5.5131702032       17.2719739182  MEMB      39              0.0000000000
      4666        39  PMPE      HB             27.3160396574        6.3102245486       18.7103984834  MEMB      39              0.0000000000
      4667        39  PMPE      C2             26.4049654158        6.8869357768       16.8004727822  MEMB      39              0.0000000000
      4668        39  PMPE      HS             25.6066400496        7.2419630707       17.4867332186  MEMB      39              0.0000000000
      4669        39  PMPE      O21            25.8721451636        6.2402224917       15.6488879873  MEMB      39              0.0000000000
      4670        39  PMPE      C21            24.7352812915        6.6743545269       15.2252122378  MEMB      39              0.0000000000
      4671        39  PMPE      O22            24.1416611873        7.6610404087       15.6405100379  MEMB      39              0.0000000000
      4672        39  PMPE      C22            24.3447891685        5.7508511850       14.1141655807  MEMB      39              0.0000000000
      4673        39  PMPE      H2R            23.7998353584        4.8641736708       14.5029443025  MEMB      39              0.0000000000
      4674        39  PMPE      H2S            25.2612088084        5.4539450582       13.5606832767  MEMB      39              0.0000000000
      4675        39  PMPE      C3             27.3154014964        8.0737416308       16.3663543702  MEMB      39              0.0000000000
      4676        39  PMPE      HX             27.7680189734        8.6208603689       17.2208247184  MEMB      39              0.0000000000
      4677        39  PMPE      HY             26.7211634224        8.8371412778       15.8200734882  MEMB      39              0.0000000000
      4678        39  PMPE      O31            28.4961457965        7.6603856709       15.5754692713  MEMB      39              0.0000000000
      4679        39  PMPE      C31            28.3765415688        7.5254621530       14.2341365817  MEMB      39              0.0000000000
      4680        39  PMPE      O32            27.4367487904        7.8950889266       13.5531182656  MEMB      39              0.0000000000
      4681        39  PMPE      C32            29.5981080693        6.7034722049       13.8408019733  MEMB      39              0.0000000000
      4682        39  PMPE      H2X            30.0284745923        6.0566446082       14.6349804325  MEMB      39              0.0000000000
      4683        39  PMPE      H2Y            30.3544499989        7.5114849545       13.7439349120  MEMB      39              0.0000000000
      4684        39  PMPE      C23            23.4408081896        6.5826262602       13.1235069369  MEMB      39              0.0000000000
      4685        39  PMPE      H3R            22.7366857372        7.2211571121       13.6986681153  MEMB      39              0.0000000000
      4686        39  PMPE      H3S            22.9400278425        5.8516170075       12.4533088447  MEMB      39              0.0000000000
      4687        39  PMPE      C24            24.3719314089        7.4473403231       12.2251217331  MEMB      39              0.0000000000
      4688        39  PMPE      H4R            24.9837451637        6.7400683381       11.6253119153  MEMB      39              0.0000000000
      4689        39  PMPE      H4S            25.0461273620        7.9968908765       12.9163343041  MEMB      39              0.0000000000
      4690        39  PMPE      C25            23.5850704065        8.5313584179       11.4118326205  MEMB      39              0.0000000000
      4691        39  PMPE      H5R            23.0127477826        9.1663752349       12.1214247763  MEMB      39              0.0000000000
      4692        39  PMPE      H5S            22.9811590508        8.0649603911       10.6043145482  MEMB      39              0.0000000000
      4693        39  PMPE      C26            24.3781454219        9.5100153359       10.4629766973  MEMB      39              0.0000000000
      4694        39  PMPE      H6R            24.7716689709       10.2442680857       11.1980503363  MEMB      39              0.0000000000
      4695        39  PMPE      H6S            23.6504142173        9.9540611732        9.7505502479  MEMB      39              0.0000000000
      4696        39  PMPE      C27            25.4950683062        9.1038403383        9.4349976275  MEMB      39              0.0000000000
      4697        39  PMPE      H7R            26.4397891034        8.8606343001        9.9666690843  MEMB      39              0.0000000000
      4698        39  PMPE      H7S            25.7131691033        9.9197687807        8.7131839485  MEMB      39              0.0000000000
      4699        39  PMPE      C28            25.1765576370        7.8057504222        8.6359329759  MEMB      39              0.0000000000
      4700        39  PMPE      H8R            24.3099432609        8.1247239429        8.0182303234  MEMB      39              0.0000000000
      4701        39  PMPE      H8S            24.9433934748        6.9317010795        9.2809079740  MEMB      39              0.0000000000
      4702        39  PMPE      C29            26.3321141244        7.5030971711        7.7551823408  MEMB      39              0.0000000000
      4703        39  PMPE      H9R            27.2692325399        7.1415703004        8.2299757352  MEMB      39              0.0000000000
      4704        39  PMPE      C217           26.6595127414        8.6324813606        6.8181193856  MEMB      39              0.0000000000
      4705        39  PMPE      H17R           27.6989435567        8.7884414609        6.5570655356  MEMB      39              0.0000000000
      4706        39  PMPE      H17S           25.9580037441        9.4392721510        6.6453121852  MEMB      39              0.0000000000
      4707        39  PMPE      C210           26.1355814409        7.2808990780        6.3243038550  MEMB      39              0.0000000000
      4708        39  PMPE      H10R           26.9391512367        6.6944649051        5.8296404619  MEMB      39              0.0000000000
      4709        39  PMPE      C211           24.8264428016        7.4202275653        5.6040697655  MEMB      39              0.0000000000
      4710        39  PMPE      H11R           24.3089058000        8.3798616933        5.8175614800  MEMB      39              0.0000000000
      4711        39  PMPE      H11S           24.2167482631        6.5898562851        6.0200946791  MEMB      39              0.0000000000
      4712        39  PMPE      C212           24.9722814290        7.1727870108        4.0373693790  MEMB      39              0.0000000000
      4713        39  PMPE      H12R           23.9104245312        7.1365150423        3.7126154667  MEMB      39              0.0000000000
      4714        39  PMPE      H12S           25.2235379624        6.0947317948        3.9425634593  MEMB      39              0.0000000000
      4715        39  PMPE      C213           25.6777200284        8.1652480174        3.1299226719  MEMB      39              0.0000000000
      4716        39  PMPE      H13R           26.7301027284        8.1584307708        3.4859651926  MEMB      39              0.0000000000
      4717        39  PMPE      H13S           25.1532939274        9.1282831185        3.3084209958  MEMB      39              0.0000000000
      4718        39  PMPE      C214           25.7999897963        7.8330378675        1.5997974157  MEMB      39              0.0000000000
      4719        39  PMPE      H14R           25.1263526898        8.4382010268        0.9561281963  MEMB      39              0.0000000000
      4720        39  PMPE      H14S           25.7165830122        6.7399500899        1.4194552237  MEMB      39              0.0000000000
      4721        39  PMPE      C215           27.2295181085        8.1285151259        0.9741786603  MEMB      39              0.0000000000
      4722        39  PMPE      H15R           27.3609658275        9.2314447136        0.9984465943  MEMB      39              0.0000000000
      4723        39  PMPE      H15S           27.0905829002        7.7351309093       -0.0555146270  MEMB      39              0.0000000000
      4724        39  PMPE      C216           28.4583308658        7.4287264348        1.5052516717  MEMB      39              0.0000000000
      4725        39  PMPE      H16R           28.8419262620        8.0925307265        2.3093274949  MEMB      39              0.0000000000
      4726        39  PMPE      H16S           28.2314002827        6.4104394383        1.8872391968  MEMB      39              0.0000000000
      4727        39  PMPE      H16T           29.1712667349        7.3788250604        0.6546326366  MEMB      39              0.0000000000
      4728        39  PMPE      C33            29.4998375056        5.9789030633       12.5209766396  MEMB      39              0.0000000000
      4729        39  PMPE      H3X            30.5395885221        5.6064718761       12.4004211440  MEMB      39              0.0000000000
      4730        39  PMPE      H3Y            29.1539290230        6.7129199477       11.7621043716  MEMB      39              0.0000000000
      4731        39  PMPE      C34            28.5258495594        4.7695070644       12.5606619702  MEMB      39              0.0000000000
      4732        39  PMPE      H4X            27.5941838323        5.2513802206       12.9268835626  MEMB      39              0.0000000000
      4733        39  PMPE      H4Y            28.9612402692        4.0680959492       13.3041526651  MEMB      39              0.0000000000
      4734        39  PMPE      C35            28.5667430661        3.9796502973       11.2368528752  MEMB      39              0.0000000000
      4735        39  PMPE      H5X            29.5389735749        3.4462604825       11.1691455718  MEMB      39              0.0000000000
      4736        39  PMPE      H5Y            28.4027149111        4.6201683573       10.3440186720  MEMB      39              0.0000000000
      4737        39  PMPE      C36            27.5132946827        2.8476410174       11.2421243678  MEMB      39              0.0000000000
      4738        39  PMPE      H6X            26.5336375051        3.3707499622       11.2729406433  MEMB      39              0.0000000000
      4739        39  PMPE      H6Y            27.7312000176        2.2625122816       12.1610708616  MEMB      39              0.0000000000
      4740        39  PMPE      C37            27.7027532720        1.8757119940       10.1103767323  MEMB      39              0.0000000000
      4741        39  PMPE      H7X            27.0205524557        1.0321468336       10.3497943706  MEMB      39              0.0000000000
      4742        39  PMPE      H7Y            28.7622918628        1.5415601848       10.1039242614  MEMB      39              0.0000000000
      4743        39  PMPE      C38            27.3137960325        2.4703955344        8.7575933382  MEMB      39              0.0000000000
      4744        39  PMPE      H8X            27.5678693184        1.6634638126        8.0374343387  MEMB      39              0.0000000000
      4745        39  PMPE      H8Y            27.9669705023        3.3195314599        8.4632257930  MEMB      39              0.0000000000
      4746        39  PMPE      C39            25.7881460274        2.7443487283        8.6015452038  MEMB      39              0.0000000000
      4747        39  PMPE      H9X            25.7201495558        3.7507146424        9.0672971402  MEMB      39              0.0000000000
      4748        39  PMPE      H9Y            25.2008385901        1.9533479846        9.1150714760  MEMB      39              0.0000000000
      4749        39  PMPE      C310           25.1723855079        2.8504043617        7.2113758457  MEMB      39              0.0000000000
      4750        39  PMPE      H10X           25.6564237226        2.0535641926        6.6071626118  MEMB      39              0.0000000000
      4751        39  PMPE      H10Y           25.4109005362        3.8599359628        6.8135357277  MEMB      39              0.0000000000
      4752        39  PMPE      C311           23.6824928917        2.6066836496        7.1986729246  MEMB      39              0.0000000000
      4753        39  PMPE      H11X           23.3186645430        3.5363990556        7.6860945094  MEMB      39              0.0000000000
      4754        39  PMPE      H11Y           23.3251617362        1.6856444536        7.7069276158  MEMB      39              0.0000000000
      4755        39  PMPE      C312           23.0271614377        2.6123197644        5.8534695827  MEMB      39              0.0000000000
      4756        39  PMPE      H12X           21.9327450824        2.5101400724        6.0151266038  MEMB      39              0.0000000000
      4757        39  PMPE      H12Y           23.4090103646        1.7753280160        5.2306075257  MEMB      39              0.0000000000
      4758        39  PMPE      C313           23.2460647214        3.9981818197        5.1264070883  MEMB      39              0.0000000000
      4759        39  PMPE      H13X           24.1781243696        4.0133830046        4.5219609698  MEMB      39              0.0000000000
      4760        39  PMPE      H13Y           23.2306899970        4.7990424546        5.8962817709  MEMB      39              0.0000000000
      4761        39  PMPE      C314           22.0646423851        4.2852391382        4.1374001333  MEMB      39              0.0000000000
      4762        39  PMPE      H14X           22.0925526413        5.3701181409        3.8995359130  MEMB      39              0.0000000000
      4763        39  PMPE      H14Y           21.1221636546        4.1417286614        4.7078914761  MEMB      39              0.0000000000
      4764        39  PMPE      C315           22.3165583883        3.5332090917        2.7926953067  MEMB      39              0.0000000000
      4765        39  PMPE      H15X           21.3118587663        3.1227247669        2.5552031243  MEMB      39              0.0000000000
      4766        39  PMPE      H15Y           22.9914063246        2.6975732630        3.0766206368  MEMB      39              0.0000000000
      4767        39  PMPE      C316           22.7786516271        4.3020713377        1.6156307009  MEMB      39              0.0000000000
      4768        39  PMPE      H16X           22.1978180902        5.2462107225        1.5411059705  MEMB      39              0.0000000000
      4769        39  PMPE      H16Y           22.7204114683        3.7254166404        0.6677924539  MEMB      39              0.0000000000
      4770        39  PMPE      H16Z           23.8256775566        4.6395132873        1.7711633487  MEMB      39              0.0000000000
      4771        40  PMPG      C13           -24.3213207592       13.2657100381       21.0805758513  MEMB      40              0.0000000000
      4772        40  PMPG      H13A          -25.0970168928       12.9996773956       21.8301379510  MEMB      40              0.0000000000
      4773        40  PMPG      H13B          -24.3927678828       12.5014561665       20.2773746068  MEMB      40              0.0000000000
      4774        40  PMPG      OC3           -23.0168555216       13.0786158139       21.6554133821  MEMB      40              0.0000000000
      4775        40  PMPG      HO3           -22.7421972776       13.9339804354       21.9938125228  MEMB      40              0.0000000000
      4776        40  PMPG      C12           -24.7256534600       14.6537041412       20.5889300245  MEMB      40              0.0000000000
      4777        40  PMPG      H12A          -25.0643609110       15.2343530504       21.4782573810  MEMB      40              0.0000000000
      4778        40  PMPG      OC2           -25.8253187048       14.5537507427       19.6829573110  MEMB      40              0.0000000000
      4779        40  PMPG      HO2           -25.9076767223       15.4680626454       19.3337185078  MEMB      40              0.0000000000
      4780        40  PMPG      C11           -23.5157348539       15.4412378672       19.9149509671  MEMB      40              0.0000000000
      4781        40  PMPG      H11A          -22.7119986626       15.5554786781       20.6734218571  MEMB      40              0.0000000000
      4782        40  PMPG      H11B          -23.8180338647       16.4971061879       19.7473852251  MEMB      40              0.0000000000
      4783        40  PMPG      P             -23.8328395523       14.5974545582       17.4285260064  MEMB      40              0.0000000000
      4784        40  PMPG      O13           -24.7785976211       15.6999188671       17.2696899839  MEMB      40              0.0000000000
      4785        40  PMPG      O14           -24.3220776894       13.2241650961       17.3118305778  MEMB      40              0.0000000000
      4786        40  PMPG      O11           -22.6666508889       14.6462360473       16.3297612339  MEMB      40              0.0000000000
      4787        40  PMPG      O12           -22.9886059519       14.7762648290       18.7373646638  MEMB      40              0.0000000000
      4788        40  PMPG      C1            -21.3368671519       14.5655038285       16.7077165097  MEMB      40              0.0000000000
      4789        40  PMPG      HA            -21.0745936014       13.7992076295       17.4681924470  MEMB      40              0.0000000000
      4790        40  PMPG      HB            -21.0887748322       15.5635632784       17.1280120731  MEMB      40              0.0000000000
      4791        40  PMPG      C2            -20.5058166305       14.4210501586       15.4489371278  MEMB      40              0.0000000000
      4792        40  PMPG      HS            -19.4560328443       14.7191893948       15.6572349292  MEMB      40              0.0000000000
      4793        40  PMPG      O21           -20.9806512462       15.1773558800       14.3237913353  MEMB      40              0.0000000000
      4794        40  PMPG      C21           -21.0493919206       16.4334353722       14.3883195788  MEMB      40              0.0000000000
      4795        40  PMPG      O22           -20.5423142961       17.1791188347       15.2071440124  MEMB      40              0.0000000000
      4796        40  PMPG      C22           -21.9883193813       16.9734123554       13.2703546057  MEMB      40              0.0000000000
      4797        40  PMPG      H2R           -22.2459028329       18.0323156710       13.4864454338  MEMB      40              0.0000000000
      4798        40  PMPG      H2S           -22.9609572601       16.4365321937       13.2628562354  MEMB      40              0.0000000000
      4799        40  PMPG      C3            -20.4679314889       12.9446641922       14.9388424141  MEMB      40              0.0000000000
      4800        40  PMPG      HX            -20.1003813831       12.2986653205       15.7646228270  MEMB      40              0.0000000000
      4801        40  PMPG      HY            -19.7940679099       12.9528362425       14.0555747334  MEMB      40              0.0000000000
      4802        40  PMPG      O31           -21.8853955496       12.6913894585       14.7756886679  MEMB      40              0.0000000000
      4803        40  PMPG      C31           -22.1907918499       12.0261252672       13.6056183189  MEMB      40              0.0000000000
      4804        40  PMPG      O32           -21.3296077585       11.5994923394       12.8389416155  MEMB      40              0.0000000000
      4805        40  PMPG      C32           -23.7045674063       12.0692744636       13.4139615140  MEMB      40              0.0000000000
      4806        40  PMPG      H2X           -24.1171082527       11.6836969245       14.3707591539  MEMB      40              0.0000000000
      4807        40  PMPG      H2Y           -23.9383138986       11.3009215317       12.6462916993  MEMB      40              0.0000000000
      4808        40  PMPG      C23           -21.2571569378       16.8717258451       11.9010864820  MEMB      40              0.0000000000
      4809        40  PMPG      H3R           -20.4366276175       17.6163680659       11.8200920631  MEMB      40              0.0000000000
      4810        40  PMPG      H3S           -22.0197711374       17.0781732934       11.1199848640  MEMB      40              0.0000000000
      4811        40  PMPG      C24           -20.7997529044       15.5086171853       11.3053048631  MEMB      40              0.0000000000
      4812        40  PMPG      H4R           -21.5871882040       14.7304100564       11.3983657227  MEMB      40              0.0000000000
      4813        40  PMPG      H4S           -20.0597391007       15.1468974952       12.0508645475  MEMB      40              0.0000000000
      4814        40  PMPG      C25           -20.3996132844       15.5744439222        9.8689017153  MEMB      40              0.0000000000
      4815        40  PMPG      H5R           -19.6712604876       16.4012191942        9.7265435915  MEMB      40              0.0000000000
      4816        40  PMPG      H5S           -21.2245092325       15.8558376775        9.1799277367  MEMB      40              0.0000000000
      4817        40  PMPG      C26           -19.8061704618       14.2756606171        9.3511467005  MEMB      40              0.0000000000
      4818        40  PMPG      H6R           -19.2211095731       13.8244982101       10.1808915631  MEMB      40              0.0000000000
      4819        40  PMPG      H6S           -19.1381850148       14.3738422159        8.4688332085  MEMB      40              0.0000000000
      4820        40  PMPG      C27           -20.8280964250       13.2250177504        8.8476382306  MEMB      40              0.0000000000
      4821        40  PMPG      H7R           -21.5520502548       13.0434096621        9.6705780119  MEMB      40              0.0000000000
      4822        40  PMPG      H7S           -20.3289067202       12.2491467241        8.6665112506  MEMB      40              0.0000000000
      4823        40  PMPG      C28           -21.6049264259       13.6125679576        7.6099520237  MEMB      40              0.0000000000
      4824        40  PMPG      H8R           -20.9669841995       13.6694721261        6.7021456967  MEMB      40              0.0000000000
      4825        40  PMPG      H8S           -22.2129108933       14.5408641848        7.6641898638  MEMB      40              0.0000000000
      4826        40  PMPG      C29           -22.5472654683       12.4658212458        7.2420075283  MEMB      40              0.0000000000
      4827        40  PMPG      H9R           -23.4609396964       12.4755973734        7.8740081677  MEMB      40              0.0000000000
      4828        40  PMPG      C217          -22.9922106920       12.3499512428        5.7916492775  MEMB      40              0.0000000000
      4829        40  PMPG      H17R          -23.9914851535       11.9373390336        5.7276908483  MEMB      40              0.0000000000
      4830        40  PMPG      H17S          -22.3893513761       13.0077342246        5.1778329716  MEMB      40              0.0000000000
      4831        40  PMPG      C210          -22.0997129343       11.3078077508        6.5484131047  MEMB      40              0.0000000000
      4832        40  PMPG      H10R          -22.6503305204       10.3801393391        6.8140683090  MEMB      40              0.0000000000
      4833        40  PMPG      C211          -20.6455178694       11.0832099150        6.0842200137  MEMB      40              0.0000000000
      4834        40  PMPG      H11R          -20.1899008758       11.8943214146        5.4769037793  MEMB      40              0.0000000000
      4835        40  PMPG      H11S          -19.9041088211       10.9909029288        6.9064803301  MEMB      40              0.0000000000
      4836        40  PMPG      C212          -20.6295821739        9.7898520891        5.2652515089  MEMB      40              0.0000000000
      4837        40  PMPG      H12R          -21.1940501053        8.9803098443        5.7754845937  MEMB      40              0.0000000000
      4838        40  PMPG      H12S          -19.5365432952        9.6241621733        5.1550962988  MEMB      40              0.0000000000
      4839        40  PMPG      C213          -21.3308325719        9.8984721059        3.9654052510  MEMB      40              0.0000000000
      4840        40  PMPG      H13R          -20.8805377575       10.6593517664        3.2926370888  MEMB      40              0.0000000000
      4841        40  PMPG      H13S          -22.3961022562       10.2007362825        4.0557245230  MEMB      40              0.0000000000
      4842        40  PMPG      C214          -21.1998507551        8.6375319763        3.0785774704  MEMB      40              0.0000000000
      4843        40  PMPG      H14R          -21.7804935429        7.8524399387        3.6084883265  MEMB      40              0.0000000000
      4844        40  PMPG      H14S          -20.1168498628        8.4114989345        2.9768930010  MEMB      40              0.0000000000
      4845        40  PMPG      C215          -21.9723477854        8.7614580152        1.7950602538  MEMB      40              0.0000000000
      4846        40  PMPG      H15R          -21.6555947072        9.6455556189        1.2014620711  MEMB      40              0.0000000000
      4847        40  PMPG      H15S          -23.0565522838        8.8900771202        2.0006804249  MEMB      40              0.0000000000
      4848        40  PMPG      C216          -21.7238573906        7.6072099591        0.8665276996  MEMB      40              0.0000000000
      4849        40  PMPG      H16R          -20.7191933363        7.7298110913        0.4083342059  MEMB      40              0.0000000000
      4850        40  PMPG      H16S          -22.4857185132        7.5754129216        0.0585188940  MEMB      40              0.0000000000
      4851        40  PMPG      H16T          -21.7509336802        6.6668525601        1.4575566628  MEMB      40              0.0000000000
      4852        40  PMPG      C33           -24.1611517937       13.5141947023       13.0236631254  MEMB      40              0.0000000000
      4853        40  PMPG      H3X           -23.5893176057       13.8312645537       12.1254463951  MEMB      40              0.0000000000
      4854        40  PMPG      H3Y           -23.8515574212       14.1972605355       13.8433541889  MEMB      40              0.0000000000
      4855        40  PMPG      C34           -25.6215121281       13.5372679990       12.6020733975  MEMB      40              0.0000000000
      4856        40  PMPG      H4X           -26.2203802833       13.3655185903       13.5219538085  MEMB      40              0.0000000000
      4857        40  PMPG      H4Y           -25.8675799734       12.6971472696       11.9179910322  MEMB      40              0.0000000000
      4858        40  PMPG      C35           -26.0301508200       14.8513931900       11.8947258154  MEMB      40              0.0000000000
      4859        40  PMPG      H5X           -25.8359924383       15.7213220862       12.5579353292  MEMB      40              0.0000000000
      4860        40  PMPG      H5Y           -27.1207821332       14.9202085530       11.6944534882  MEMB      40              0.0000000000
      4861        40  PMPG      C36           -25.2416876964       15.1135542192       10.5865424494  MEMB      40              0.0000000000
      4862        40  PMPG      H6X           -25.3611774741       14.2169512571        9.9414484869  MEMB      40              0.0000000000
      4863        40  PMPG      H6Y           -24.1657058186       15.2082115117       10.8465886796  MEMB      40              0.0000000000
      4864        40  PMPG      C37           -25.8229197945       16.2161950206        9.6734533343  MEMB      40              0.0000000000
      4865        40  PMPG      H7X           -25.8488715616       17.0905017738       10.3584608487  MEMB      40              0.0000000000
      4866        40  PMPG      H7Y           -26.8274646197       15.8559268752        9.3645556111  MEMB      40              0.0000000000
      4867        40  PMPG      C38           -24.8424904694       16.4567513034        8.4651434854  MEMB      40              0.0000000000
      4868        40  PMPG      H8X           -23.7898329011       16.5027161027        8.8174504976  MEMB      40              0.0000000000
      4869        40  PMPG      H8Y           -24.9408040376       17.4953196043        8.0830030340  MEMB      40              0.0000000000
      4870        40  PMPG      C39           -25.0048426074       15.4832384203        7.2002878750  MEMB      40              0.0000000000
      4871        40  PMPG      H9X           -24.9654503800       14.4611222571        7.6339328401  MEMB      40              0.0000000000
      4872        40  PMPG      H9Y           -24.1452947194       15.6271524224        6.5112395509  MEMB      40              0.0000000000
      4873        40  PMPG      C310          -26.3492034510       15.7680984150        6.4349852092  MEMB      40              0.0000000000
      4874        40  PMPG      H10X          -26.4307814747       16.8737608169        6.3630371251  MEMB      40              0.0000000000
      4875        40  PMPG      H10Y          -27.2083356009       15.3126435631        6.9723619337  MEMB      40              0.0000000000
      4876        40  PMPG      C311          -26.5176352116       14.9075762956        5.1790164042  MEMB      40              0.0000000000
      4877        40  PMPG      H11X          -27.5726923081       14.9555474209        4.8342343906  MEMB      40              0.0000000000
      4878        40  PMPG      H11Y          -26.4390928567       13.8142654971        5.3601893040  MEMB      40              0.0000000000
      4879        40  PMPG      C312          -25.5461364880       15.1865731189        3.9720293129  MEMB      40              0.0000000000
      4880        40  PMPG      H12X          -24.5554755260       15.1784272752        4.4748667414  MEMB      40              0.0000000000
      4881        40  PMPG      H12Y          -25.6862085733       16.2441765693        3.6619071038  MEMB      40              0.0000000000
      4882        40  PMPG      C313          -25.6614783279       14.3358876904        2.7224684841  MEMB      40              0.0000000000
      4883        40  PMPG      H13X          -26.5600257483       14.6578297886        2.1538854458  MEMB      40              0.0000000000
      4884        40  PMPG      H13Y          -25.7172529438       13.2507768844        2.9542980121  MEMB      40              0.0000000000
      4885        40  PMPG      C314          -24.4934308881       14.4421553818        1.7226613487  MEMB      40              0.0000000000
      4886        40  PMPG      H14X          -23.5531058921       14.3617605745        2.3088742272  MEMB      40              0.0000000000
      4887        40  PMPG      H14Y          -24.5387561478       15.4867267658        1.3469785777  MEMB      40              0.0000000000
      4888        40  PMPG      C315          -24.4538085591       13.5297765622        0.5066836304  MEMB      40              0.0000000000
      4889        40  PMPG      H15X          -23.5153936809       13.5646470950       -0.0870171971  MEMB      40              0.0000000000
      4890        40  PMPG      H15Y          -25.2898067274       13.6166514144       -0.2198701294  MEMB      40              0.0000000000
      4891        40  PMPG      C316          -24.5537198811       12.0380007129        0.9516795841  MEMB      40              0.0000000000
      4892        40  PMPG      H16X          -24.0109092889       11.7875525520        1.8881367555  MEMB      40              0.0000000000
      4893        40  PMPG      H16Y          -24.2882905633       11.2711727118        0.1928363266  MEMB      40              0.0000000000
      4894        40  PMPG      H16Z          -25.5758921322       11.7608341242        1.2873327095  MEMB      40              0.0000000000
      4895        41  QMPE      N              -2.1242306040       25.6925607762       20.8652120024  MEMB      41              0.0000000000
      4896        41  QMPE      HN1            -2.5298055713       25.7575144609       21.8206647268  MEMB      41              0.0000000000
      4897        41  QMPE      HN2            -2.8460824952       25.6630393860       20.1171087670  MEMB      41              0.0000000000
      4898        41  QMPE      HN3            -1.4217926113       24.9261047352       20.8382685544  MEMB      41              0.0000000000
      4899        41  QMPE      C12            -1.4709424620       27.0030269477       20.7619693861  MEMB      41              0.0000000000
      4900        41  QMPE      H12A           -0.5820372808       27.0429049430       21.4272350569  MEMB      41              0.0000000000
      4901        41  QMPE      H12B           -2.1864599538       27.7402784570       21.1848357127  MEMB      41              0.0000000000
      4902        41  QMPE      C11            -1.1815224091       27.2755878696       19.2710520749  MEMB      41              0.0000000000
      4903        41  QMPE      H11A           -0.7378484926       26.3341451041       18.8822592543  MEMB      41              0.0000000000
      4904        41  QMPE      H11B           -0.4718126095       28.1100994611       19.0860558395  MEMB      41              0.0000000000
      4905        41  QMPE      P              -3.0513805187       28.9902791785       18.2569418074  MEMB      41              0.0000000000
      4906        41  QMPE      O13            -2.7210304336       29.8470724094       19.4280580681  MEMB      41              0.0000000000
      4907        41  QMPE      O14            -4.4985741409       28.7831159349       17.9596573406  MEMB      41              0.0000000000
      4908        41  QMPE      O11            -2.3276094911       29.7400540524       17.0435708191  MEMB      41              0.0000000000
      4909        41  QMPE      O12            -2.2938029078       27.5417940108       18.4135385031  MEMB      41              0.0000000000
      4910        41  QMPE      C1             -1.0171849492       30.3414667701       17.0897958387  MEMB      41              0.0000000000
      4911        41  QMPE      HA             -0.3056091731       29.8945725085       17.8166152586  MEMB      41              0.0000000000
      4912        41  QMPE      HB             -1.2164980552       31.3860690533       17.4113565756  MEMB      41              0.0000000000
      4913        41  QMPE      C2             -0.3289062280       30.5589605783       15.6797207844  MEMB      41              0.0000000000
      4914        41  QMPE      HS              0.4973655463       31.2986211206       15.7467888759  MEMB      41              0.0000000000
      4915        41  QMPE      O21            -1.2875074578       31.1083050759       14.8061974693  MEMB      41              0.0000000000
      4916        41  QMPE      C21            -1.6303748624       32.4253069074       14.8779893315  MEMB      41              0.0000000000
      4917        41  QMPE      O22            -1.1676570233       33.2087598687       15.6734676653  MEMB      41              0.0000000000
      4918        41  QMPE      C22            -2.7833341540       32.8596746616       13.9900972282  MEMB      41              0.0000000000
      4919        41  QMPE      H2R            -3.5879132115       33.3395618410       14.5873261602  MEMB      41              0.0000000000
      4920        41  QMPE      H2S            -3.4834323930       32.0202464319       13.7912415031  MEMB      41              0.0000000000
      4921        41  QMPE      C3              0.2588673756       29.1914643238       15.1938269026  MEMB      41              0.0000000000
      4922        41  QMPE      HX              1.2107567047       28.9415147605       15.7093390464  MEMB      41              0.0000000000
      4923        41  QMPE      HY              0.5034514948       29.3082295081       14.1163918809  MEMB      41              0.0000000000
      4924        41  QMPE      O31            -0.7714007793       28.1357072746       15.3593389948  MEMB      41              0.0000000000
      4925        41  QMPE      C31            -1.4932247113       27.8941651824       14.2903134420  MEMB      41              0.0000000000
      4926        41  QMPE      O32            -1.5258125042       28.3876639764       13.2173531827  MEMB      41              0.0000000000
      4927        41  QMPE      C32            -2.5533174665       26.9290238706       14.7870213406  MEMB      41              0.0000000000
      4928        41  QMPE      H2X            -2.1607301777       25.8958899651       14.9002932166  MEMB      41              0.0000000000
      4929        41  QMPE      H2Y            -2.9751838426       27.3588496184       15.7206162238  MEMB      41              0.0000000000
      4930        41  QMPE      C23            -2.3253338979       33.5779285303       12.6895868601  MEMB      41              0.0000000000
      4931        41  QMPE      H3R            -1.2993389437       33.2540214023       12.4125679436  MEMB      41              0.0000000000
      4932        41  QMPE      H3S            -2.2273513514       34.6520818496       12.9558866597  MEMB      41              0.0000000000
      4933        41  QMPE      C24            -3.2877726862       33.3476345681       11.5732354007  MEMB      41              0.0000000000
      4934        41  QMPE      H4R            -4.3339301434       33.6092975823       11.8404581142  MEMB      41              0.0000000000
      4935        41  QMPE      H4S            -3.3150890033       32.2422553002       11.4650147978  MEMB      41              0.0000000000
      4936        41  QMPE      C25            -2.8923516880       34.0762088996       10.2003436824  MEMB      41              0.0000000000
      4937        41  QMPE      H5R            -2.8816324131       35.1862020352       10.2464022572  MEMB      41              0.0000000000
      4938        41  QMPE      H5S            -3.6485946279       33.7727033117        9.4451605757  MEMB      41              0.0000000000
      4939        41  QMPE      C26            -1.5419394591       33.5369896288        9.7086150848  MEMB      41              0.0000000000
      4940        41  QMPE      H6R            -1.4994279022       32.4778307479       10.0413246656  MEMB      41              0.0000000000
      4941        41  QMPE      H6S            -0.8086676617       34.1175449940       10.3082725504  MEMB      41              0.0000000000
      4942        41  QMPE      C27            -1.2878248152       33.7410666311        8.2323892110  MEMB      41              0.0000000000
      4943        41  QMPE      H7R            -1.5407681983       34.7574838369        7.8619349678  MEMB      41              0.0000000000
      4944        41  QMPE      H7S            -1.9658812730       33.0149790287        7.7350397429  MEMB      41              0.0000000000
      4945        41  QMPE      C28             0.1060526054       33.4415576307        7.7082246763  MEMB      41              0.0000000000
      4946        41  QMPE      H8R             0.7126680919       34.2493606464        8.1706017493  MEMB      41              0.0000000000
      4947        41  QMPE      H8S            -0.0152298583       33.6867749173        6.6314329665  MEMB      41              0.0000000000
      4948        41  QMPE      C29             0.8111901294       32.1236660168        8.0590930440  MEMB      41              0.0000000000
      4949        41  QMPE      H9R             0.1312846352       31.2462485434        8.1058683611  MEMB      41              0.0000000000
      4950        41  QMPE      C217            1.6731336832       32.2431857723        9.3220147368  MEMB      41              0.0000000000
      4951        41  QMPE      H17R            2.0045384188       33.1816028448        9.7491365754  MEMB      41              0.0000000000
      4952        41  QMPE      H17S            1.5133743187       31.3707448742        9.9434743062  MEMB      41              0.0000000000
      4953        41  QMPE      C210            2.2927775944       31.8751364926        7.9095423179  MEMB      41              0.0000000000
      4954        41  QMPE      H10R            2.5217244042       30.7965823776        7.7730673841  MEMB      41              0.0000000000
      4955        41  QMPE      C211            3.1173184173       32.7579623487        7.1902826635  MEMB      41              0.0000000000
      4956        41  QMPE      H11R            3.1549705113       33.7542906641        7.6804179462  MEMB      41              0.0000000000
      4957        41  QMPE      H11S            4.1848870632       32.4504038891        7.1953890241  MEMB      41              0.0000000000
      4958        41  QMPE      C212            2.7397875366       32.9570715579        5.6959549051  MEMB      41              0.0000000000
      4959        41  QMPE      H12R            1.6446199047       32.9343518063        5.5104484945  MEMB      41              0.0000000000
      4960        41  QMPE      H12S            3.0737346930       32.0770459480        5.1057378829  MEMB      41              0.0000000000
      4961        41  QMPE      C213            3.3143467416       34.2340271230        4.9619336428  MEMB      41              0.0000000000
      4962        41  QMPE      H13R            4.3922415242       34.1077364853        5.1996613809  MEMB      41              0.0000000000
      4963        41  QMPE      H13S            2.8702859535       35.1478850826        5.4113710754  MEMB      41              0.0000000000
      4964        41  QMPE      C214            3.0389897123       34.4642315976        3.4393614841  MEMB      41              0.0000000000
      4965        41  QMPE      H14R            3.6201076419       35.3282432721        3.0519255679  MEMB      41              0.0000000000
      4966        41  QMPE      H14S            1.9637505799       34.5116547128        3.1638024935  MEMB      41              0.0000000000
      4967        41  QMPE      C215            3.5697884683       33.2511002116        2.5961418876  MEMB      41              0.0000000000
      4968        41  QMPE      H15R            2.8320338684       32.4323954652        2.7367180668  MEMB      41              0.0000000000
      4969        41  QMPE      H15S            4.5255716241       32.8918601366        3.0340303270  MEMB      41              0.0000000000
      4970        41  QMPE      C216            3.7653004573       33.4678797811        1.1130384525  MEMB      41              0.0000000000
      4971        41  QMPE      H16R            4.6028319549       34.1566020362        0.8711230615  MEMB      41              0.0000000000
      4972        41  QMPE      H16S            2.8214912934       33.8923234604        0.7088193548  MEMB      41              0.0000000000
      4973        41  QMPE      H16T            3.9495227227       32.5376409646        0.5342128689  MEMB      41              0.0000000000
      4974        41  QMPE      C33            -3.6884035714       26.7849765949       13.7288719970  MEMB      41              0.0000000000
      4975        41  QMPE      H3X            -4.0143544003       27.7170072534       13.2195623606  MEMB      41              0.0000000000
      4976        41  QMPE      H3Y            -4.5336860543       26.2968311276       14.2594685004  MEMB      41              0.0000000000
      4977        41  QMPE      C34            -3.3742545225       25.8487501703       12.5564823661  MEMB      41              0.0000000000
      4978        41  QMPE      H4X            -3.0460189233       24.8475064390       12.9087517462  MEMB      41              0.0000000000
      4979        41  QMPE      H4Y            -2.4910702789       26.2038757103       11.9836018020  MEMB      41              0.0000000000
      4980        41  QMPE      C35            -4.5947641830       25.5468402848       11.5389310949  MEMB      41              0.0000000000
      4981        41  QMPE      H5X            -5.4348962810       25.1597272727       12.1542703458  MEMB      41              0.0000000000
      4982        41  QMPE      H5Y            -4.3104775308       24.6757670081       10.9106530830  MEMB      41              0.0000000000
      4983        41  QMPE      C36            -5.0854062560       26.7426563037       10.6863806440  MEMB      41              0.0000000000
      4984        41  QMPE      H6X            -5.1733400150       27.5818513666       11.4091118038  MEMB      41              0.0000000000
      4985        41  QMPE      H6Y            -5.9859404111       26.5555724869       10.0631960341  MEMB      41              0.0000000000
      4986        41  QMPE      C37            -4.0577598662       27.2750781251        9.5970653418  MEMB      41              0.0000000000
      4987        41  QMPE      H7X            -3.0561967204       27.5168242974       10.0126983485  MEMB      41              0.0000000000
      4988        41  QMPE      H7Y            -3.8135369050       26.4420977538        8.9036527716  MEMB      41              0.0000000000
      4989        41  QMPE      C38            -4.5475904552       28.5108507033        8.8092602977  MEMB      41              0.0000000000
      4990        41  QMPE      H8X            -5.5606106935       28.1765363257        8.4988665347  MEMB      41              0.0000000000
      4991        41  QMPE      H8Y            -4.5911835468       29.3752257979        9.5058780640  MEMB      41              0.0000000000
      4992        41  QMPE      C39            -3.7097209472       28.7285760048        7.5394067291  MEMB      41              0.0000000000
      4993        41  QMPE      H9X            -3.8988529874       27.8758173435        6.8528548298  MEMB      41              0.0000000000
      4994        41  QMPE      H9Y            -2.6243565808       28.8817168024        7.7206604857  MEMB      41              0.0000000000
      4995        41  QMPE      C310           -4.2078923049       30.0181476880        6.8959462240  MEMB      41              0.0000000000
      4996        41  QMPE      H10X           -4.2489151672       30.7499281829        7.7308922530  MEMB      41              0.0000000000
      4997        41  QMPE      H10Y           -5.2392727758       29.9198110160        6.4948162506  MEMB      41              0.0000000000
      4998        41  QMPE      C311           -3.4267720524       30.7080304607        5.7826237019  MEMB      41              0.0000000000
      4999        41  QMPE      H11X           -3.4290187109       30.1118407399        4.8451410244  MEMB      41              0.0000000000
      5000        41  QMPE      H11Y           -2.3848273288       30.8184776553        6.1520478160  MEMB      41              0.0000000000
      5001        41  QMPE      C312           -4.0793127471       32.1291006575        5.6287336793  MEMB      41              0.0000000000
      5002        41  QMPE      H12X           -4.1240711941       32.5628132255        6.6505998992  MEMB      41              0.0000000000
      5003        41  QMPE      H12Y           -5.1240618167       32.2111662360        5.2598352696  MEMB      41              0.0000000000
      5004        41  QMPE      C313           -3.2457787829       33.0123927785        4.7509337053  MEMB      41              0.0000000000
      5005        41  QMPE      H13X           -3.7131988100       34.0075478047        4.5912278067  MEMB      41              0.0000000000
      5006        41  QMPE      H13Y           -2.3200294851       33.1685327257        5.3450115411  MEMB      41              0.0000000000
      5007        41  QMPE      C314           -2.8261790269       32.3582664683        3.3883802604  MEMB      41              0.0000000000
      5008        41  QMPE      H14X           -3.7214451937       32.0878785626        2.7886213228  MEMB      41              0.0000000000
      5009        41  QMPE      H14Y           -2.2339236395       31.4294960269        3.5330864404  MEMB      41              0.0000000000
      5010        41  QMPE      C315           -2.1174511133       33.3021850658        2.5340131155  MEMB      41              0.0000000000
      5011        41  QMPE      H15X           -1.0514149816       33.3687633337        2.8397182658  MEMB      41              0.0000000000
      5012        41  QMPE      H15Y           -2.2150605320       33.0729477955        1.4513124832  MEMB      41              0.0000000000
      5013        41  QMPE      H15Z           -2.5776455632       34.3098637960        2.6184281192  MEMB      41              0.0000000000
      5014        42  PMPE      N              22.2573062349      -15.8551596071       19.7659467752  MEMB      42              0.0000000000
      5015        42  PMPE      HN1            22.7713177652      -15.1336846338       20.3108008087  MEMB      42              0.0000000000
      5016        42  PMPE      HN2            21.7054974067      -15.4899625550       18.9636138313  MEMB      42              0.0000000000
      5017        42  PMPE      HN3            21.5489241932      -16.2562622200       20.4131806015  MEMB      42              0.0000000000
      5018        42  PMPE      C12            23.1310655709      -16.9619745310       19.2244373194  MEMB      42              0.0000000000
      5019        42  PMPE      H12A           23.7982765057      -17.2126932601       20.0766640364  MEMB      42              0.0000000000
      5020        42  PMPE      H12B           23.8114738056      -16.5162519865       18.4676698794  MEMB      42              0.0000000000
      5021        42  PMPE      C11            22.3765284736      -18.0812788110       18.5152551474  MEMB      42              0.0000000000
      5022        42  PMPE      H11A           22.9424733273      -18.9969155079       18.2402335955  MEMB      42              0.0000000000
      5023        42  PMPE      H11B           21.9845935907      -17.6578650317       17.5658191132  MEMB      42              0.0000000000
      5024        42  PMPE      P              20.5361153479      -19.8721148057       18.9243177350  MEMB      42              0.0000000000
      5025        42  PMPE      O13            19.5339819548      -20.1825460648       19.9788107618  MEMB      42              0.0000000000
      5026        42  PMPE      O14            21.5874900844      -20.8345302185       18.7091654321  MEMB      42              0.0000000000
      5027        42  PMPE      O11            19.7368518619      -19.6139693800       17.5493071593  MEMB      42              0.0000000000
      5028        42  PMPE      O12            21.2495972460      -18.5755929999       19.3327596701  MEMB      42              0.0000000000
      5029        42  PMPE      C1             19.1810575367      -18.3643877077       17.2083865291  MEMB      42              0.0000000000
      5030        42  PMPE      HA             20.0324813519      -17.6524947476       17.2594449462  MEMB      42              0.0000000000
      5031        42  PMPE      HB             18.3674671541      -18.0746359028       17.9072681289  MEMB      42              0.0000000000
      5032        42  PMPE      C2             18.6475046987      -18.3060634713       15.8034862236  MEMB      42              0.0000000000
      5033        42  PMPE      HS             17.5560886937      -18.4920049902       15.8959936455  MEMB      42              0.0000000000
      5034        42  PMPE      O21            19.2571030292      -19.2521512828       14.9596822446  MEMB      42              0.0000000000
      5035        42  PMPE      C21            18.5874959598      -20.0638290561       14.1636686551  MEMB      42              0.0000000000
      5036        42  PMPE      O22            17.4219052391      -20.2739574898       14.1508133876  MEMB      42              0.0000000000
      5037        42  PMPE      C22            19.5405431528      -20.7556197969       13.1668419088  MEMB      42              0.0000000000
      5038        42  PMPE      H2R            20.2458444088      -21.4784604059       13.6298456438  MEMB      42              0.0000000000
      5039        42  PMPE      H2S            20.2792026524      -20.0255133413       12.7723197118  MEMB      42              0.0000000000
      5040        42  PMPE      C3             18.8521647696      -16.8423846559       15.1592032771  MEMB      42              0.0000000000
      5041        42  PMPE      HX             19.9139727971      -16.5288206665       15.2517363013  MEMB      42              0.0000000000
      5042        42  PMPE      HY             18.3119684711      -16.0690793313       15.7461507263  MEMB      42              0.0000000000
      5043        42  PMPE      O31            18.4187042482      -16.8857676418       13.7922421744  MEMB      42              0.0000000000
      5044        42  PMPE      C31            18.6758895065      -15.9523969370       12.9894604544  MEMB      42              0.0000000000
      5045        42  PMPE      O32            19.1451251626      -14.8502845270       13.2579866981  MEMB      42              0.0000000000
      5046        42  PMPE      C32            18.3000172884      -16.2909114082       11.5218028654  MEMB      42              0.0000000000
      5047        42  PMPE      H2X            17.1890861406      -16.3031784031       11.5201866955  MEMB      42              0.0000000000
      5048        42  PMPE      H2Y            18.5522892980      -17.3702352381       11.4460398237  MEMB      42              0.0000000000
      5049        42  PMPE      C23            18.8033991801      -21.4886850249       12.0390378870  MEMB      42              0.0000000000
      5050        42  PMPE      H3R            18.4724949411      -20.6640961472       11.3720471082  MEMB      42              0.0000000000
      5051        42  PMPE      H3S            17.9676563928      -22.0778261269       12.4735122595  MEMB      42              0.0000000000
      5052        42  PMPE      C24            19.6908810457      -22.3793713920       11.2052032400  MEMB      42              0.0000000000
      5053        42  PMPE      H4R            20.1282416245      -23.0642770002       11.9627920607  MEMB      42              0.0000000000
      5054        42  PMPE      H4S            20.4650808422      -21.7123530381       10.7692876902  MEMB      42              0.0000000000
      5055        42  PMPE      C25            18.7995086231      -23.2380052510       10.2865802007  MEMB      42              0.0000000000
      5056        42  PMPE      H5R            18.1583173057      -23.9189687999       10.8861498696  MEMB      42              0.0000000000
      5057        42  PMPE      H5S            19.4936729745      -23.9334939846        9.7681664906  MEMB      42              0.0000000000
      5058        42  PMPE      C26            18.0044058386      -22.5189023725        9.2176550247  MEMB      42              0.0000000000
      5059        42  PMPE      H6R            17.0968459755      -22.0876479552        9.6916551906  MEMB      42              0.0000000000
      5060        42  PMPE      H6S            17.6050603383      -23.3486960846        8.5961353717  MEMB      42              0.0000000000
      5061        42  PMPE      C27            18.6558861650      -21.4269935344        8.3161784219  MEMB      42              0.0000000000
      5062        42  PMPE      H7R            19.0692983479      -20.7240497825        9.0706863194  MEMB      42              0.0000000000
      5063        42  PMPE      H7S            17.8974559090      -20.8410474810        7.7542430648  MEMB      42              0.0000000000
      5064        42  PMPE      C28            19.7442204728      -21.7959784064        7.1943751919  MEMB      42              0.0000000000
      5065        42  PMPE      H8R            20.4361364442      -22.4684978656        7.7450936708  MEMB      42              0.0000000000
      5066        42  PMPE      H8S            20.2332584401      -20.8308446241        6.9420264449  MEMB      42              0.0000000000
      5067        42  PMPE      C29            19.1818037072      -22.4184570020        5.8961575989  MEMB      42              0.0000000000
      5068        42  PMPE      H9R            18.2782833813      -21.9453231156        5.4555711549  MEMB      42              0.0000000000
      5069        42  PMPE      C217           19.1390803856      -23.9667721436        5.8791029997  MEMB      42              0.0000000000
      5070        42  PMPE      H17R           18.2785998333      -24.3563713807        5.3493156445  MEMB      42              0.0000000000
      5071        42  PMPE      H17S           19.5533357579      -24.4138823248        6.7742986663  MEMB      42              0.0000000000
      5072        42  PMPE      C210           20.1417350788      -23.2274728715        4.9530653352  MEMB      42              0.0000000000
      5073        42  PMPE      H10R           19.8363899554      -23.0637887858        3.8974649189  MEMB      42              0.0000000000
      5074        42  PMPE      C211           21.5995493993      -23.2388746002        5.2183414354  MEMB      42              0.0000000000
      5075        42  PMPE      H11R           21.9216036329      -24.0084807759        4.4846468048  MEMB      42              0.0000000000
      5076        42  PMPE      H11S           21.8043249365      -23.7440171027        6.1864429901  MEMB      42              0.0000000000
      5077        42  PMPE      C212           22.4037516022      -21.9176532791        4.9945580527  MEMB      42              0.0000000000
      5078        42  PMPE      H12R           22.3569484751      -21.3311386974        5.9369656581  MEMB      42              0.0000000000
      5079        42  PMPE      H12S           21.8495381711      -21.3353553632        4.2276822971  MEMB      42              0.0000000000
      5080        42  PMPE      C213           23.7565004995      -22.1988699363        4.4789857139  MEMB      42              0.0000000000
      5081        42  PMPE      H13R           23.6653877383      -22.8401954911        3.5763664499  MEMB      42              0.0000000000
      5082        42  PMPE      H13S           24.2165855507      -22.8820234218        5.2246015082  MEMB      42              0.0000000000
      5083        42  PMPE      C214           24.7063714869      -21.0724752224        4.2180766886  MEMB      42              0.0000000000
      5084        42  PMPE      H14R           25.7165943171      -21.3585246038        3.8548322886  MEMB      42              0.0000000000
      5085        42  PMPE      H14S           24.7883386207      -20.3632411091        5.0693046941  MEMB      42              0.0000000000
      5086        42  PMPE      C215           24.2663132296      -20.0384887051        3.1209999074  MEMB      42              0.0000000000
      5087        42  PMPE      H15R           24.7655387065      -19.0502234331        3.2127970822  MEMB      42              0.0000000000
      5088        42  PMPE      H15S           23.2143071243      -19.6979311756        3.2288171052  MEMB      42              0.0000000000
      5089        42  PMPE      C216           24.2830498430      -20.5820818741        1.6532615413  MEMB      42              0.0000000000
      5090        42  PMPE      H16R           25.3253941723      -20.7671664010        1.3162402355  MEMB      42              0.0000000000
      5091        42  PMPE      H16S           23.6084446370      -21.4572669363        1.5380228605  MEMB      42              0.0000000000
      5092        42  PMPE      H16T           23.9548751702      -19.7648240513        0.9759785216  MEMB      42              0.0000000000
      5093        42  PMPE      C33            18.9703193880      -15.4330734916       10.4597069499  MEMB      42              0.0000000000
      5094        42  PMPE      H3X            20.0652301779      -15.3675437213       10.6363340652  MEMB      42              0.0000000000
      5095        42  PMPE      H3Y            18.4483549323      -14.4538236680       10.4054575094  MEMB      42              0.0000000000
      5096        42  PMPE      C34            18.9338897939      -16.2438948707        9.1140372574  MEMB      42              0.0000000000
      5097        42  PMPE      H4X            19.5250915603      -15.6844492096        8.3578474574  MEMB      42              0.0000000000
      5098        42  PMPE      H4Y            17.8497011780      -16.2199224271        8.8726218633  MEMB      42              0.0000000000
      5099        42  PMPE      C35            19.3949445203      -17.7472131129        9.1351512172  MEMB      42              0.0000000000
      5100        42  PMPE      H5X            19.2782394997      -18.0494464479        8.0724392074  MEMB      42              0.0000000000
      5101        42  PMPE      H5Y            18.6862534427      -18.4550282015        9.6158550029  MEMB      42              0.0000000000
      5102        42  PMPE      C36            20.8085755601      -18.1283434592        9.6303516207  MEMB      42              0.0000000000
      5103        42  PMPE      H6X            20.8411196130      -19.2258628868        9.7998008481  MEMB      42              0.0000000000
      5104        42  PMPE      H6Y            20.9234858561      -17.6265322077       10.6148832286  MEMB      42              0.0000000000
      5105        42  PMPE      C37            21.9627918849      -17.5228370535        8.8484588930  MEMB      42              0.0000000000
      5106        42  PMPE      H7X            22.8527221242      -17.1257293236        9.3819859869  MEMB      42              0.0000000000
      5107        42  PMPE      H7Y            21.3990223678      -16.6679146907        8.4176547291  MEMB      42              0.0000000000
      5108        42  PMPE      C38            22.6408806545      -18.5568849472        7.8502889904  MEMB      42              0.0000000000
      5109        42  PMPE      H8X            21.9798025910      -19.1997670197        7.2306120374  MEMB      42              0.0000000000
      5110        42  PMPE      H8Y            23.1766216784      -19.2783430022        8.5035888716  MEMB      42              0.0000000000
      5111        42  PMPE      C39            23.6553867406      -17.8755845183        6.8740255059  MEMB      42              0.0000000000
      5112        42  PMPE      H9X            24.0686948480      -18.5781596308        6.1191180964  MEMB      42              0.0000000000
      5113        42  PMPE      H9Y            24.4659574749      -17.4162792016        7.4792807282  MEMB      42              0.0000000000
      5114        42  PMPE      C310           22.9922487638      -16.7509024652        5.9484167446  MEMB      42              0.0000000000
      5115        42  PMPE      H10X           23.7398900630      -16.3393527131        5.2370940316  MEMB      42              0.0000000000
      5116        42  PMPE      H10Y           22.5459096402      -15.9304061448        6.5499881468  MEMB      42              0.0000000000
      5117        42  PMPE      C311           21.9122069169      -17.3410703633        5.1014215543  MEMB      42              0.0000000000
      5118        42  PMPE      H11X           21.1524413118      -17.7505467330        5.8009974979  MEMB      42              0.0000000000
      5119        42  PMPE      H11Y           22.3992042126      -18.0970727300        4.4490298776  MEMB      42              0.0000000000
      5120        42  PMPE      C312           21.1579409126      -16.3007778213        4.2341154564  MEMB      42              0.0000000000
      5121        42  PMPE      H12X           21.8835151706      -16.0160713677        3.4424052345  MEMB      42              0.0000000000
      5122        42  PMPE      H12Y           20.8856171480      -15.4285099671        4.8660255381  MEMB      42              0.0000000000
      5123        42  PMPE      C313           19.8985412059      -16.8812335792        3.6134303334  MEMB      42              0.0000000000
      5124        42  PMPE      H13X           19.3841364891      -16.0654009936        3.0619540220  MEMB      42              0.0000000000
      5125        42  PMPE      H13Y           19.2205647131      -17.1355178943        4.4560504259  MEMB      42              0.0000000000
      5126        42  PMPE      C314           20.1017678645      -18.0000752611        2.5778836198  MEMB      42              0.0000000000
      5127        42  PMPE      H14X           20.2282956411      -18.9333939257        3.1671456019  MEMB      42              0.0000000000
      5128        42  PMPE      H14Y           20.8598611627      -17.7163152386        1.8169001547  MEMB      42              0.0000000000
      5129        42  PMPE      C315           18.7857566967      -18.3408048636        1.7198569284  MEMB      42              0.0000000000
      5130        42  PMPE      H15X           19.0348258856      -19.1303290865        0.9789550926  MEMB      42              0.0000000000
      5131        42  PMPE      H15Y           18.5731662362      -17.4688384524        1.0650277428  MEMB      42              0.0000000000
      5132        42  PMPE      C316           17.5169802573      -18.6780738673        2.5424187942  MEMB      42              0.0000000000
      5133        42  PMPE      H16X           16.7953567172      -19.3377703905        2.0148012190  MEMB      42              0.0000000000
      5134        42  PMPE      H16Y           17.1687960920      -17.6312729705        2.6739373335  MEMB      42              0.0000000000
      5135        42  PMPE      H16Z           17.7363691589      -19.1184432427        3.5385439544  MEMB      42              0.0000000000
      5136        43  QMPE      N              28.2518695560       -8.0291527435       18.8536918177  MEMB      43              0.0000000000
      5137        43  QMPE      HN1            28.9983358628       -7.4937160197       18.3661514258  MEMB      43              0.0000000000
      5138        43  QMPE      HN2            28.6171115896       -8.9789370828       19.0684198158  MEMB      43              0.0000000000
      5139        43  QMPE      HN3            27.3850823318       -8.0856346791       18.2817742986  MEMB      43              0.0000000000
      5140        43  QMPE      C12            27.9954496240       -7.2191277103       20.1282077294  MEMB      43              0.0000000000
      5141        43  QMPE      H12A           28.9559653478       -6.7654393316       20.4536265790  MEMB      43              0.0000000000
      5142        43  QMPE      H12B           27.6097136171       -8.0533706890       20.7523612419  MEMB      43              0.0000000000
      5143        43  QMPE      C11            26.9892707797       -6.0968816460       19.8742357601  MEMB      43              0.0000000000
      5144        43  QMPE      H11A           26.9081257370       -5.4859674858       20.7986383807  MEMB      43              0.0000000000
      5145        43  QMPE      H11B           26.0124273034       -6.5812973273       19.6610706223  MEMB      43              0.0000000000
      5146        43  QMPE      P              28.0277129098       -3.9557574577       18.6621884803  MEMB      43              0.0000000000
      5147        43  QMPE      O13            28.4346752987       -3.3672719667       19.9690653557  MEMB      43              0.0000000000
      5148        43  QMPE      O14            27.4279416442       -2.9572012484       17.7624841276  MEMB      43              0.0000000000
      5149        43  QMPE      O11            29.3634002069       -4.5445879096       18.0097290136  MEMB      43              0.0000000000
      5150        43  QMPE      O12            27.1272935807       -5.3291777178       18.7403977135  MEMB      43              0.0000000000
      5151        43  QMPE      C1             30.4720871067       -3.8405152597       17.4694389755  MEMB      43              0.0000000000
      5152        43  QMPE      HA             31.4177856673       -4.1003468049       17.9914189873  MEMB      43              0.0000000000
      5153        43  QMPE      HB             30.3003417042       -2.7685775720       17.7056040569  MEMB      43              0.0000000000
      5154        43  QMPE      C2             30.6464620919       -4.2203678290       16.0093324543  MEMB      43              0.0000000000
      5155        43  QMPE      HS             31.5008658840       -3.6527227205       15.5826075443  MEMB      43              0.0000000000
      5156        43  QMPE      O21            29.5121939706       -3.8737115130       15.3355926237  MEMB      43              0.0000000000
      5157        43  QMPE      C21            29.4898848824       -2.7821335418       14.6448799919  MEMB      43              0.0000000000
      5158        43  QMPE      O22            30.3719636606       -1.9627418136       14.6510162576  MEMB      43              0.0000000000
      5159        43  QMPE      C22            28.3019508873       -2.6580165131       13.6553249963  MEMB      43              0.0000000000
      5160        43  QMPE      H2R            27.4074082003       -2.7229688631       14.3109889521  MEMB      43              0.0000000000
      5161        43  QMPE      H2S            28.4433533994       -3.5140978990       12.9614581449  MEMB      43              0.0000000000
      5162        43  QMPE      C3             30.8862935175       -5.7442263543       15.8994036682  MEMB      43              0.0000000000
      5163        43  QMPE      HX             30.2329412584       -6.2859007523       16.6163698640  MEMB      43              0.0000000000
      5164        43  QMPE      HY             31.9202846180       -5.9949491987       16.2192816794  MEMB      43              0.0000000000
      5165        43  QMPE      O31            30.6595310751       -6.2495431992       14.5247838483  MEMB      43              0.0000000000
      5166        43  QMPE      C31            29.5273902638       -6.9234541258       14.1829829287  MEMB      43              0.0000000000
      5167        43  QMPE      O32            28.5835594191       -7.1276056096       14.8849417964  MEMB      43              0.0000000000
      5168        43  QMPE      C32            29.6714478418       -7.3040254975       12.7380270666  MEMB      43              0.0000000000
      5169        43  QMPE      H2X            30.5190261002       -8.0222931427       12.7331517741  MEMB      43              0.0000000000
      5170        43  QMPE      H2Y            28.7623660973       -7.8261242696       12.3701897159  MEMB      43              0.0000000000
      5171        43  QMPE      C23            28.3415697489       -1.2418957032       12.8102354717  MEMB      43              0.0000000000
      5172        43  QMPE      H3R            29.3873487647       -0.9945764309       12.5282774906  MEMB      43              0.0000000000
      5173        43  QMPE      H3S            28.0456561229       -0.3870386823       13.4551974345  MEMB      43              0.0000000000
      5174        43  QMPE      C24            27.5880069957       -1.4266982295       11.4658760922  MEMB      43              0.0000000000
      5175        43  QMPE      H4R            28.1087848277       -2.2623685086       10.9513210702  MEMB      43              0.0000000000
      5176        43  QMPE      H4S            27.6869430763       -0.4757910229       10.8999179278  MEMB      43              0.0000000000
      5177        43  QMPE      C25            26.1134137321       -1.8241600031       11.6639589889  MEMB      43              0.0000000000
      5178        43  QMPE      H5R            25.5888847673       -0.8700901746       11.8851852616  MEMB      43              0.0000000000
      5179        43  QMPE      H5S            25.7566689654       -2.5421300650       12.4330968511  MEMB      43              0.0000000000
      5180        43  QMPE      C26            25.6232690797       -2.4365522936       10.3160011479  MEMB      43              0.0000000000
      5181        43  QMPE      H6R            26.1413331340       -3.4098256047       10.1793638054  MEMB      43              0.0000000000
      5182        43  QMPE      H6S            26.0270300709       -1.8513475674        9.4622836641  MEMB      43              0.0000000000
      5183        43  QMPE      C27            24.1096583889       -2.4346790094       10.0444024301  MEMB      43              0.0000000000
      5184        43  QMPE      H7R            23.7585325345       -1.3811780790       10.0102373771  MEMB      43              0.0000000000
      5185        43  QMPE      H7S            23.5112559034       -2.8850161418       10.8650313780  MEMB      43              0.0000000000
      5186        43  QMPE      C28            23.8165388475       -3.0760550483        8.6689435592  MEMB      43              0.0000000000
      5187        43  QMPE      H8R            24.4966854787       -2.6726627718        7.8885610157  MEMB      43              0.0000000000
      5188        43  QMPE      H8S            22.8288076629       -2.6493577202        8.3921070006  MEMB      43              0.0000000000
      5189        43  QMPE      C29            23.9655896313       -4.5806293011        8.9344603286  MEMB      43              0.0000000000
      5190        43  QMPE      H9R            23.5892643805       -4.8993550012        9.9300075921  MEMB      43              0.0000000000
      5191        43  QMPE      C217           25.3489095271       -5.1576999966        8.6622872548  MEMB      43              0.0000000000
      5192        43  QMPE      H17R           25.9641325150       -4.4899945056        8.0718980970  MEMB      43              0.0000000000
      5193        43  QMPE      H17S           25.5939415835       -6.1052112781        9.1260444900  MEMB      43              0.0000000000
      5194        43  QMPE      C210           24.1422091441       -5.5462603432        7.8464197294  MEMB      43              0.0000000000
      5195        43  QMPE      H10R           23.6640811980       -6.4959845046        8.1685050666  MEMB      43              0.0000000000
      5196        43  QMPE      C211           24.0838656377       -5.1053895303        6.3844140365  MEMB      43              0.0000000000
      5197        43  QMPE      H11R           25.1079331482       -4.7048036949        6.2258657386  MEMB      43              0.0000000000
      5198        43  QMPE      H11S           24.1283778013       -6.0487683858        5.7992845588  MEMB      43              0.0000000000
      5199        43  QMPE      C212           23.0032948776       -4.2041253194        5.8080470512  MEMB      43              0.0000000000
      5200        43  QMPE      H12R           23.1087893637       -3.1482117574        6.1370434542  MEMB      43              0.0000000000
      5201        43  QMPE      H12S           22.0014368645       -4.5352757878        6.1558115701  MEMB      43              0.0000000000
      5202        43  QMPE      C213           22.9323096917       -4.2398570690        4.2784402101  MEMB      43              0.0000000000
      5203        43  QMPE      H13R           21.9920011679       -3.7505367885        3.9457147097  MEMB      43              0.0000000000
      5204        43  QMPE      H13S           22.6871645980       -5.2512290426        3.8894015435  MEMB      43              0.0000000000
      5205        43  QMPE      C214           24.0248515748       -3.5657168574        3.4063418551  MEMB      43              0.0000000000
      5206        43  QMPE      H14R           23.6914095266       -3.7708733050        2.3666080672  MEMB      43              0.0000000000
      5207        43  QMPE      H14S           25.0387825029       -3.9856209723        3.5793909251  MEMB      43              0.0000000000
      5208        43  QMPE      C215           24.2262219193       -2.0011544673        3.4337261998  MEMB      43              0.0000000000
      5209        43  QMPE      H15R           24.7249572816       -1.8591962449        4.4162903320  MEMB      43              0.0000000000
      5210        43  QMPE      H15S           23.2996366597       -1.3972763958        3.3284096798  MEMB      43              0.0000000000
      5211        43  QMPE      C216           25.2117004668       -1.5792986409        2.3402403521  MEMB      43              0.0000000000
      5212        43  QMPE      H16R           26.0265061863       -2.3310926054        2.2680026299  MEMB      43              0.0000000000
      5213        43  QMPE      H16S           25.7926209253       -0.6402875151        2.4631648846  MEMB      43              0.0000000000
      5214        43  QMPE      H16T           24.5521899167       -1.4446306658        1.4563680432  MEMB      43              0.0000000000
      5215        43  QMPE      C33            29.8487971112       -6.1732520211       11.7354613932  MEMB      43              0.0000000000
      5216        43  QMPE      H3X            30.8742379648       -5.7575694197       11.8354614597  MEMB      43              0.0000000000
      5217        43  QMPE      H3Y            29.0663483032       -5.4000766200       11.8913284613  MEMB      43              0.0000000000
      5218        43  QMPE      C34            29.7841400348       -6.5066435741       10.2406399306  MEMB      43              0.0000000000
      5219        43  QMPE      H4X            28.8676644395       -7.1178915161       10.0965244776  MEMB      43              0.0000000000
      5220        43  QMPE      H4Y            30.5340749179       -7.2596271561        9.9167041550  MEMB      43              0.0000000000
      5221        43  QMPE      C35            29.5249096971       -5.3475500691        9.3020534772  MEMB      43              0.0000000000
      5222        43  QMPE      H5X            30.4936444729       -4.8107402790        9.2142514859  MEMB      43              0.0000000000
      5223        43  QMPE      H5Y            28.8626345044       -4.6285277437        9.8299924824  MEMB      43              0.0000000000
      5224        43  QMPE      C36            28.8829305701       -5.8114408235        7.9749383026  MEMB      43              0.0000000000
      5225        43  QMPE      H6X            27.8318524042       -6.1175705783        8.1642536409  MEMB      43              0.0000000000
      5226        43  QMPE      H6Y            29.5791318150       -6.4828186050        7.4282417885  MEMB      43              0.0000000000
      5227        43  QMPE      C37            28.8889854352       -4.6422786863        7.0175852955  MEMB      43              0.0000000000
      5228        43  QMPE      H7X            28.2089920603       -3.8363031265        7.3673472106  MEMB      43              0.0000000000
      5229        43  QMPE      H7Y            29.9057448389       -4.2211155977        6.8654566885  MEMB      43              0.0000000000
      5230        43  QMPE      C38            28.5501283002       -5.0994152103        5.5821451473  MEMB      43              0.0000000000
      5231        43  QMPE      H8X            29.1280442305       -5.9985178058        5.2789152737  MEMB      43              0.0000000000
      5232        43  QMPE      H8Y            27.4898438758       -5.4190385989        5.4929329154  MEMB      43              0.0000000000
      5233        43  QMPE      C39            28.7415035151       -3.9525904809        4.5747922467  MEMB      43              0.0000000000
      5234        43  QMPE      H9X            29.8031084742       -3.6642413377        4.4193225737  MEMB      43              0.0000000000
      5235        43  QMPE      H9Y            28.2537227085       -3.0331790828        4.9634737956  MEMB      43              0.0000000000
      5236        43  QMPE      C310           28.1998992795       -4.1840715613        3.1846240025  MEMB      43              0.0000000000
      5237        43  QMPE      H10X           28.3810629077       -3.2814438467        2.5627200044  MEMB      43              0.0000000000
      5238        43  QMPE      H10Y           27.1444882700       -4.5254405612        3.1222080306  MEMB      43              0.0000000000
      5239        43  QMPE      C311           28.9558826593       -5.3465188425        2.4067329266  MEMB      43              0.0000000000
      5240        43  QMPE      H11X           28.9444578588       -6.2446128639        3.0606565965  MEMB      43              0.0000000000
      5241        43  QMPE      H11Y           30.0020916022       -5.0722798046        2.1526445290  MEMB      43              0.0000000000
      5242        43  QMPE      C312           28.2240773835       -5.8369327482        1.1263259687  MEMB      43              0.0000000000
      5243        43  QMPE      H12X           27.1774006585       -6.0835805050        1.4055283004  MEMB      43              0.0000000000
      5244        43  QMPE      H12Y           28.5890086997       -6.8058237343        0.7233410835  MEMB      43              0.0000000000
      5245        43  QMPE      C313           28.2253879850       -4.7988116891        0.0092265081  MEMB      43              0.0000000000
      5246        43  QMPE      H13X           27.9570390837       -3.7687436051        0.3274549238  MEMB      43              0.0000000000
      5247        43  QMPE      H13Y           29.2974198508       -4.8094313754       -0.2822466526  MEMB      43              0.0000000000
      5248        43  QMPE      C314           27.3324377098       -5.0960931421       -1.2599485562  MEMB      43              0.0000000000
      5249        43  QMPE      H14X           27.6187757863       -6.0820576299       -1.6844542583  MEMB      43              0.0000000000
      5250        43  QMPE      H14Y           27.5815722124       -4.2918731892       -1.9848504852  MEMB      43              0.0000000000
      5251        43  QMPE      C315           25.9035492280       -5.1361991005       -0.8498095623  MEMB      43              0.0000000000
      5252        43  QMPE      H15X           25.4160727744       -6.1231474579       -1.0002111692  MEMB      43              0.0000000000
      5253        43  QMPE      H15Y           25.7476793240       -4.6615013459        0.1425040376  MEMB      43              0.0000000000
      5254        43  QMPE      H15Z           25.4266631712       -4.4386511888       -1.5711475869  MEMB      43              0.0000000000
      5255        44  PMPE      N             -19.1778776005      -19.6574854323       20.1770939896  MEMB      44              0.0000000000
      5256        44  PMPE      HN1           -18.7672760745      -20.1124816576       19.3368649567  MEMB      44              0.0000000000
      5257        44  PMPE      HN2           -18.5793822643      -19.4176849806       20.9931204155  MEMB      44              0.0000000000
      5258        44  PMPE      HN3           -19.9196948928      -20.2680982563       20.5751631636  MEMB      44              0.0000000000
      5259        44  PMPE      C12           -19.7338412189      -18.3996969637       19.7959060124  MEMB      44              0.0000000000
      5260        44  PMPE      H12A          -19.5590723652      -18.2841849425       18.7048359604  MEMB      44              0.0000000000
      5261        44  PMPE      H12B          -19.0284563759      -17.6756084712       20.2568279250  MEMB      44              0.0000000000
      5262        44  PMPE      C11           -21.2178346238      -18.2280289473       20.0745798979  MEMB      44              0.0000000000
      5263        44  PMPE      H11A          -21.6090417179      -17.3454714470       19.5246978118  MEMB      44              0.0000000000
      5264        44  PMPE      H11B          -21.2145343125      -17.9491984740       21.1500164768  MEMB      44              0.0000000000
      5265        44  PMPE      P             -22.5600462239      -19.7448285750       18.3358838563  MEMB      44              0.0000000000
      5266        44  PMPE      O13           -22.5219298548      -18.5447786649       17.4720279836  MEMB      44              0.0000000000
      5267        44  PMPE      O14           -23.8690661869      -20.4309004259       18.4146633293  MEMB      44              0.0000000000
      5268        44  PMPE      O11           -21.4173991945      -20.8118580522       17.9353107078  MEMB      44              0.0000000000
      5269        44  PMPE      O12           -22.0770947321      -19.3210149233       19.7945342038  MEMB      44              0.0000000000
      5270        44  PMPE      C1            -21.3343997333      -22.1123163396       18.3881869151  MEMB      44              0.0000000000
      5271        44  PMPE      HA            -22.2835461520      -22.6115021583       18.6784550263  MEMB      44              0.0000000000
      5272        44  PMPE      HB            -20.7482167125      -22.2307072511       19.3245063222  MEMB      44              0.0000000000
      5273        44  PMPE      C2            -20.6377766206      -23.1052595804       17.3485341999  MEMB      44              0.0000000000
      5274        44  PMPE      HS            -20.0677079242      -23.8705422923       17.9174671872  MEMB      44              0.0000000000
      5275        44  PMPE      O21           -19.7069985503      -22.4480889523       16.4448768420  MEMB      44              0.0000000000
      5276        44  PMPE      C21           -18.5425351190      -22.0132078514       17.0015687764  MEMB      44              0.0000000000
      5277        44  PMPE      O22           -18.1437578345      -22.2759452568       18.1095531167  MEMB      44              0.0000000000
      5278        44  PMPE      C22           -17.8616866472      -21.0793033511       15.9634083007  MEMB      44              0.0000000000
      5279        44  PMPE      H2R           -17.0344552509      -20.6166881226       16.5430602296  MEMB      44              0.0000000000
      5280        44  PMPE      H2S           -18.5363521063      -20.2674064539       15.6170397029  MEMB      44              0.0000000000
      5281        44  PMPE      C3            -21.7726858695      -23.8263810347       16.5678083555  MEMB      44              0.0000000000
      5282        44  PMPE      HX            -22.2759328929      -24.4339386763       17.3500722758  MEMB      44              0.0000000000
      5283        44  PMPE      HY            -21.2246566824      -24.4405440768       15.8216258445  MEMB      44              0.0000000000
      5284        44  PMPE      O31           -22.7423198911      -22.9369114088       15.9498243233  MEMB      44              0.0000000000
      5285        44  PMPE      C31           -22.3435014551      -22.4373663260       14.8063013581  MEMB      44              0.0000000000
      5286        44  PMPE      O32           -21.4599459283      -22.8142786025       14.0645152590  MEMB      44              0.0000000000
      5287        44  PMPE      C32           -23.0862285931      -21.1401367175       14.5178194124  MEMB      44              0.0000000000
      5288        44  PMPE      H2X           -22.8701952383      -20.3349934386       15.2522545691  MEMB      44              0.0000000000
      5289        44  PMPE      H2Y           -24.1647595664      -21.2039537577       14.7767007916  MEMB      44              0.0000000000
      5290        44  PMPE      C23           -17.4004144948      -21.9302950588       14.7544543566  MEMB      44              0.0000000000
      5291        44  PMPE      H3R           -18.1492992878      -22.5509195500       14.2175018645  MEMB      44              0.0000000000
      5292        44  PMPE      H3S           -16.5554820989      -22.5726434202       15.0827820892  MEMB      44              0.0000000000
      5293        44  PMPE      C24           -16.7942933383      -20.9560772192       13.6660323224  MEMB      44              0.0000000000
      5294        44  PMPE      H4R           -15.7328033139      -21.2715898941       13.5765219822  MEMB      44              0.0000000000
      5295        44  PMPE      H4S           -16.8405608727      -19.9338658878       14.0987723188  MEMB      44              0.0000000000
      5296        44  PMPE      C25           -17.4643229076      -21.0861346594       12.3309444390  MEMB      44              0.0000000000
      5297        44  PMPE      H5R           -18.5585368055      -21.2368866300       12.4504887983  MEMB      44              0.0000000000
      5298        44  PMPE      H5S           -17.1807334537      -22.0238255411       11.8068896957  MEMB      44              0.0000000000
      5299        44  PMPE      C26           -17.0904621179      -19.8607210801       11.4651493421  MEMB      44              0.0000000000
      5300        44  PMPE      H6R           -16.0353416423      -19.9255183525       11.1233270712  MEMB      44              0.0000000000
      5301        44  PMPE      H6S           -17.0881445665      -18.9689471349       12.1277617755  MEMB      44              0.0000000000
      5302        44  PMPE      C27           -18.0587409878      -19.6058057072       10.2982540133  MEMB      44              0.0000000000
      5303        44  PMPE      H7R           -17.7586263029      -18.6713161813        9.7776954260  MEMB      44              0.0000000000
      5304        44  PMPE      H7S           -19.0941636786      -19.3965871388       10.6424174263  MEMB      44              0.0000000000
      5305        44  PMPE      C28           -18.1068372608      -20.7026755795        9.2695313932  MEMB      44              0.0000000000
      5306        44  PMPE      H8R           -18.8435167662      -20.4266080225        8.4850494889  MEMB      44              0.0000000000
      5307        44  PMPE      H8S           -18.6185971269      -21.5002668509        9.8494202417  MEMB      44              0.0000000000
      5308        44  PMPE      C29           -16.6758846675      -21.0891353274        8.7444699134  MEMB      44              0.0000000000
      5309        44  PMPE      H9R           -15.8776443031      -21.3743350903        9.4626584140  MEMB      44              0.0000000000
      5310        44  PMPE      C217          -15.9735630407      -19.9241445499        7.9717484188  MEMB      44              0.0000000000
      5311        44  PMPE      H17R          -14.9156465583      -20.0032462845        8.1895652282  MEMB      44              0.0000000000
      5312        44  PMPE      H17S          -16.5590788876      -19.0673494380        7.6619698898  MEMB      44              0.0000000000
      5313        44  PMPE      C210          -16.3206060577      -21.2470888553        7.3045135726  MEMB      44              0.0000000000
      5314        44  PMPE      H10R          -15.5125880592      -21.9934666420        7.1484759348  MEMB      44              0.0000000000
      5315        44  PMPE      C211          -17.4692925345      -21.3762813209        6.3187357750  MEMB      44              0.0000000000
      5316        44  PMPE      H11R          -17.1323061215      -21.4677433241        5.2640341604  MEMB      44              0.0000000000
      5317        44  PMPE      H11S          -18.1314550692      -20.4910338782        6.4291848979  MEMB      44              0.0000000000
      5318        44  PMPE      C212          -18.4204585849      -22.5882124736        6.5117493160  MEMB      44              0.0000000000
      5319        44  PMPE      H12R          -18.8516599638      -22.6234150362        7.5350510883  MEMB      44              0.0000000000
      5320        44  PMPE      H12S          -17.6891313031      -23.4244726533        6.4994965745  MEMB      44              0.0000000000
      5321        44  PMPE      C213          -19.5574512711      -22.8088168407        5.4263247424  MEMB      44              0.0000000000
      5322        44  PMPE      H13R          -20.2410372508      -21.9490446830        5.5931266753  MEMB      44              0.0000000000
      5323        44  PMPE      H13S          -20.0766663474      -23.7282248751        5.7719041062  MEMB      44              0.0000000000
      5324        44  PMPE      C214          -18.9812098058      -22.9026753527        4.0125323091  MEMB      44              0.0000000000
      5325        44  PMPE      H14R          -18.3134990339      -22.0398753067        3.8026295267  MEMB      44              0.0000000000
      5326        44  PMPE      H14S          -19.8655687165      -22.9601870061        3.3425157267  MEMB      44              0.0000000000
      5327        44  PMPE      C215          -18.2041891597      -24.2200217001        3.7997833334  MEMB      44              0.0000000000
      5328        44  PMPE      H15R          -18.9362065149      -25.0544548798        3.7529527547  MEMB      44              0.0000000000
      5329        44  PMPE      H15S          -17.6044718811      -24.4052698981        4.7164847274  MEMB      44              0.0000000000
      5330        44  PMPE      C216          -17.2800569455      -24.2979950508        2.6090131519  MEMB      44              0.0000000000
      5331        44  PMPE      H16R          -17.8633891881      -24.1927895991        1.6693455240  MEMB      44              0.0000000000
      5332        44  PMPE      H16S          -16.5173246773      -23.4947582762        2.6948667690  MEMB      44              0.0000000000
      5333        44  PMPE      H16T          -16.7110049305      -25.2403521997        2.4591306986  MEMB      44              0.0000000000
      5334        44  PMPE      C33           -23.0108328442      -20.7203540969       13.0268957535  MEMB      44              0.0000000000
      5335        44  PMPE      H3X           -23.2372860838      -21.6367921475       12.4410793186  MEMB      44              0.0000000000
      5336        44  PMPE      H3Y           -21.9646435005      -20.4323986350       12.7883782869  MEMB      44              0.0000000000
      5337        44  PMPE      C34           -23.9724165527      -19.5570681291       12.5563354171  MEMB      44              0.0000000000
      5338        44  PMPE      H4X           -24.8954769489      -19.4445180835       13.1642936980  MEMB      44              0.0000000000
      5339        44  PMPE      H4Y           -24.3139358774      -19.8839473883       11.5509326910  MEMB      44              0.0000000000
      5340        44  PMPE      C35           -23.2512865642      -18.2133883830       12.6782417782  MEMB      44              0.0000000000
      5341        44  PMPE      H5X           -22.3245861961      -18.3134031716       12.0736393025  MEMB      44              0.0000000000
      5342        44  PMPE      H5Y           -23.0051920399      -17.9291882951       13.7237029452  MEMB      44              0.0000000000
      5343        44  PMPE      C36           -23.9703773422      -17.0188371720       11.9352423651  MEMB      44              0.0000000000
      5344        44  PMPE      H6X           -24.6174041271      -16.5970235435       12.7338351704  MEMB      44              0.0000000000
      5345        44  PMPE      H6Y           -24.6596279277      -17.4097753587       11.1565115230  MEMB      44              0.0000000000
      5346        44  PMPE      C37           -23.1351438013      -15.8499633533       11.4559406561  MEMB      44              0.0000000000
      5347        44  PMPE      H7X           -22.5188673395      -15.3687700910       12.2452299780  MEMB      44              0.0000000000
      5348        44  PMPE      H7Y           -23.7919752307      -15.0402525010       11.0721932064  MEMB      44              0.0000000000
      5349        44  PMPE      C38           -22.2915578653      -16.2802630483       10.2981673893  MEMB      44              0.0000000000
      5350        44  PMPE      H8X           -21.6647250171      -17.1159300833       10.6764026503  MEMB      44              0.0000000000
      5351        44  PMPE      H8Y           -21.6255581868      -15.4790236752        9.9124457134  MEMB      44              0.0000000000
      5352        44  PMPE      C39           -23.1652235174      -16.6466460947        9.1066262564  MEMB      44              0.0000000000
      5353        44  PMPE      H9X           -23.7895307805      -15.7555817873        8.8817576488  MEMB      44              0.0000000000
      5354        44  PMPE      H9Y           -23.7850928307      -17.5619204971        9.2177826828  MEMB      44              0.0000000000
      5355        44  PMPE      C310          -22.2194933715      -16.9885062794        7.9011341717  MEMB      44              0.0000000000
      5356        44  PMPE      H10X          -21.3731229197      -16.2860859180        7.7443430603  MEMB      44              0.0000000000
      5357        44  PMPE      H10Y          -22.8994037419      -16.8753855961        7.0297865655  MEMB      44              0.0000000000
      5358        44  PMPE      C311          -21.6439854509      -18.3661319650        7.9702612820  MEMB      44              0.0000000000
      5359        44  PMPE      H11X          -22.4671778105      -19.1039248004        7.8591886094  MEMB      44              0.0000000000
      5360        44  PMPE      H11Y          -21.1239436082      -18.5758940311        8.9293634754  MEMB      44              0.0000000000
      5361        44  PMPE      C312          -20.5919522931      -18.6619832002        6.8583661013  MEMB      44              0.0000000000
      5362        44  PMPE      H12X          -20.2261492675      -19.6497920032        7.2115557951  MEMB      44              0.0000000000
      5363        44  PMPE      H12Y          -19.7265387688      -17.9714274057        6.9506326964  MEMB      44              0.0000000000
      5364        44  PMPE      C313          -21.0582980155      -18.7787244244        5.3591217419  MEMB      44              0.0000000000
      5365        44  PMPE      H13X          -21.5799029791      -17.8081151532        5.2171107329  MEMB      44              0.0000000000
      5366        44  PMPE      H13Y          -21.7053051357      -19.6559865800        5.1443803643  MEMB      44              0.0000000000
      5367        44  PMPE      C314          -19.8759829452      -18.8130495159        4.4106061844  MEMB      44              0.0000000000
      5368        44  PMPE      H14X          -19.4922021951      -19.8455902003        4.2660626130  MEMB      44              0.0000000000
      5369        44  PMPE      H14Y          -19.0959215365      -18.1431912305        4.8314570980  MEMB      44              0.0000000000
      5370        44  PMPE      C315          -20.0990914011      -18.1412998082        3.0395735163  MEMB      44              0.0000000000
      5371        44  PMPE      H15X          -20.5463749012      -17.1622340299        3.3146888691  MEMB      44              0.0000000000
      5372        44  PMPE      H15Y          -20.9226656820      -18.5662850957        2.4268456667  MEMB      44              0.0000000000
      5373        44  PMPE      C316          -18.8743834435      -17.9056839275        2.1584716810  MEMB      44              0.0000000000
      5374        44  PMPE      H16X          -19.2151117171      -17.3346229451        1.2684642038  MEMB      44              0.0000000000
      5375        44  PMPE      H16Y          -18.4623008022      -18.9067423276        1.9086891259  MEMB      44              0.0000000000
      5376        44  PMPE      H16Z          -18.1542132087      -17.2866136076        2.7350372889  MEMB      44              0.0000000000
      5377        45  PMPE      N              25.5288534748       14.1098136305       20.6113812039  MEMB      45              0.0000000000
      5378        45  PMPE      HN1            25.5751861454       14.8091112200       19.8429827285  MEMB      45              0.0000000000
      5379        45  PMPE      HN2            25.0077462082       14.5482227955       21.3974120520  MEMB      45              0.0000000000
      5380        45  PMPE      HN3            26.5281890612       13.9486512533       20.8500334147  MEMB      45              0.0000000000
      5381        45  PMPE      C12            24.8462853948       12.8040069282       20.1380855305  MEMB      45              0.0000000000
      5382        45  PMPE      H12A           23.7863359241       13.0905855094       19.9686713635  MEMB      45              0.0000000000
      5383        45  PMPE      H12B           24.7327416035       12.0398467130       20.9365140322  MEMB      45              0.0000000000
      5384        45  PMPE      C11            25.4836807611       12.1659371873       18.8857590601  MEMB      45              0.0000000000
      5385        45  PMPE      H11A           25.6757332094       12.9395499244       18.1118338956  MEMB      45              0.0000000000
      5386        45  PMPE      H11B           24.7834937248       11.5096659479       18.3259669746  MEMB      45              0.0000000000
      5387        45  PMPE      P              27.9587968049       11.2607320720       18.4790106175  MEMB      45              0.0000000000
      5388        45  PMPE      O13            27.8459092235       10.2018288921       17.3915187931  MEMB      45              0.0000000000
      5389        45  PMPE      O14            29.0698253766       11.1808750361       19.4143564208  MEMB      45              0.0000000000
      5390        45  PMPE      O11            27.9548614120       12.6851491819       17.7949809868  MEMB      45              0.0000000000
      5391        45  PMPE      O12            26.6153026162       11.4069897144       19.2849073900  MEMB      45              0.0000000000
      5392        45  PMPE      C1             29.1180087901       13.4895764249       17.7944332575  MEMB      45              0.0000000000
      5393        45  PMPE      HA             29.9948081414       13.2298414436       18.4253703764  MEMB      45              0.0000000000
      5394        45  PMPE      HB             28.8357260702       14.4580038280       18.2600360642  MEMB      45              0.0000000000
      5395        45  PMPE      C2             29.8019101882       13.6886105214       16.4157201553  MEMB      45              0.0000000000
      5396        45  PMPE      HS             30.2666786997       14.6968569567       16.3738844987  MEMB      45              0.0000000000
      5397        45  PMPE      O21            28.8523374777       13.6184746626       15.3258903836  MEMB      45              0.0000000000
      5398        45  PMPE      C21            29.2286734695       13.9955694182       14.0977043632  MEMB      45              0.0000000000
      5399        45  PMPE      O22            30.1569007752       14.8019383518       13.8466230864  MEMB      45              0.0000000000
      5400        45  PMPE      C22            28.4205711323       13.1364784177       13.1190778492  MEMB      45              0.0000000000
      5401        45  PMPE      H2R            27.5305565593       12.6579477840       13.5808174096  MEMB      45              0.0000000000
      5402        45  PMPE      H2S            29.0542495721       12.3173913724       12.7167480977  MEMB      45              0.0000000000
      5403        45  PMPE      C3             30.9618835293       12.6155315634       16.1780025415  MEMB      45              0.0000000000
      5404        45  PMPE      HX             31.4508718868       12.2283458628       17.0974037531  MEMB      45              0.0000000000
      5405        45  PMPE      HY             31.7197328021       13.1441226149       15.5610931540  MEMB      45              0.0000000000
      5406        45  PMPE      O31            30.4296971062       11.5681859282       15.3814578930  MEMB      45              0.0000000000
      5407        45  PMPE      C31            30.6895767149       10.2719405820       15.6394768152  MEMB      45              0.0000000000
      5408        45  PMPE      O32            31.1816418779        9.8399615877       16.6799019076  MEMB      45              0.0000000000
      5409        45  PMPE      C32            30.2089761958        9.4627024438       14.4265366381  MEMB      45              0.0000000000
      5410        45  PMPE      H2X            29.1176124764        9.6579159069       14.3548563689  MEMB      45              0.0000000000
      5411        45  PMPE      H2Y            30.3756055809        8.3938844423       14.6798821444  MEMB      45              0.0000000000
      5412        45  PMPE      C23            27.9839362761       13.9053245466       11.8728964450  MEMB      45              0.0000000000
      5413        45  PMPE      H3R            28.8570449045       14.1448862880       11.2289924416  MEMB      45              0.0000000000
      5414        45  PMPE      H3S            27.4992569734       14.8326460340       12.2463694718  MEMB      45              0.0000000000
      5415        45  PMPE      C24            27.0142058403       13.0121846848       11.1548834096  MEMB      45              0.0000000000
      5416        45  PMPE      H4R            26.0640369187       13.0763057746       11.7270620787  MEMB      45              0.0000000000
      5417        45  PMPE      H4S            27.4379617877       11.9970200589       10.9993432118  MEMB      45              0.0000000000
      5418        45  PMPE      C25            26.6228975675       13.7504600838        9.8645020283  MEMB      45              0.0000000000
      5419        45  PMPE      H5R            27.5595312169       14.0017584329        9.3223878639  MEMB      45              0.0000000000
      5420        45  PMPE      H5S            26.0996247109       14.7092501039       10.0675500165  MEMB      45              0.0000000000
      5421        45  PMPE      C26            25.7703033378       12.7895308720        8.9621695598  MEMB      45              0.0000000000
      5422        45  PMPE      H6R            24.8874152042       12.3325117769        9.4581162685  MEMB      45              0.0000000000
      5423        45  PMPE      H6S            26.5197920705       12.0668964159        8.5743717231  MEMB      45              0.0000000000
      5424        45  PMPE      C27            25.2357645275       13.5231917563        7.6920367522  MEMB      45              0.0000000000
      5425        45  PMPE      H7R            26.0618888997       13.8489272167        7.0244023867  MEMB      45              0.0000000000
      5426        45  PMPE      H7S            24.8551501491       14.4697102726        8.1319868660  MEMB      45              0.0000000000
      5427        45  PMPE      C28            24.2273913055       12.6874975567        6.8764912994  MEMB      45              0.0000000000
      5428        45  PMPE      H8R            24.6491113760       11.7174001222        6.5368092132  MEMB      45              0.0000000000
      5429        45  PMPE      H8S            23.9923960461       13.3276296293        5.9993768067  MEMB      45              0.0000000000
      5430        45  PMPE      C29            22.9527144056       12.4371754887        7.7365210444  MEMB      45              0.0000000000
      5431        45  PMPE      H9R            22.6608129694       13.2457230157        8.4403431800  MEMB      45              0.0000000000
      5432        45  PMPE      C217           22.9954656291       11.0425782611        8.2672636606  MEMB      45              0.0000000000
      5433        45  PMPE      H17R           22.6759116010       10.9622015154        9.2989197276  MEMB      45              0.0000000000
      5434        45  PMPE      H17S           23.7196761770       10.3707163291        7.8234063543  MEMB      45              0.0000000000
      5435        45  PMPE      C210           21.9581034971       11.4287297735        7.2039506324  MEMB      45              0.0000000000
      5436        45  PMPE      H10R           20.9506091175       11.4124313588        7.6719367915  MEMB      45              0.0000000000
      5437        45  PMPE      C211           22.1912141461       10.6996717048        5.9024194305  MEMB      45              0.0000000000
      5438        45  PMPE      H11R           22.0163041601        9.6028564650        5.8755184186  MEMB      45              0.0000000000
      5439        45  PMPE      H11S           23.2372658692       10.7169710866        5.5285246076  MEMB      45              0.0000000000
      5440        45  PMPE      C212           21.3532485508       11.3931424724        4.8758962972  MEMB      45              0.0000000000
      5441        45  PMPE      H12R           21.6553686750       12.4622440063        4.8840368976  MEMB      45              0.0000000000
      5442        45  PMPE      H12S           20.2876595394       11.3482725256        5.1870681867  MEMB      45              0.0000000000
      5443        45  PMPE      C213           21.4991727833       10.8157748886        3.4255627927  MEMB      45              0.0000000000
      5444        45  PMPE      H13R           20.8514887953       11.4845838064        2.8193277580  MEMB      45              0.0000000000
      5445        45  PMPE      H13S           21.0822712518        9.7977849022        3.2699652969  MEMB      45              0.0000000000
      5446        45  PMPE      C214           22.8903395688       10.7498161706        2.8857929414  MEMB      45              0.0000000000
      5447        45  PMPE      H14R           23.2467086193        9.7304975218        3.1471577691  MEMB      45              0.0000000000
      5448        45  PMPE      H14S           23.4146254167       11.4613147583        3.5590056336  MEMB      45              0.0000000000
      5449        45  PMPE      C215           22.9758765848       11.0426142801        1.4295505950  MEMB      45              0.0000000000
      5450        45  PMPE      H15R           22.0761448829       10.7362610305        0.8542662154  MEMB      45              0.0000000000
      5451        45  PMPE      H15S           23.7633294598       10.3732842342        1.0218300175  MEMB      45              0.0000000000
      5452        45  PMPE      C216           23.2447037960       12.4812351088        1.0616132247  MEMB      45              0.0000000000
      5453        45  PMPE      H16R           24.2681660840       12.7604795391        1.3915647945  MEMB      45              0.0000000000
      5454        45  PMPE      H16S           23.0298857776       12.6500074486       -0.0152770047  MEMB      45              0.0000000000
      5455        45  PMPE      H16T           22.5463720013       13.2108571636        1.5245442419  MEMB      45              0.0000000000
      5456        45  PMPE      C33            31.0505905935        9.7777464054       13.1320898691  MEMB      45              0.0000000000
      5457        45  PMPE      H3X            32.1421571072        9.7030984497       13.3250435779  MEMB      45              0.0000000000
      5458        45  PMPE      H3Y            30.7857629798       10.8208270733       12.8561000199  MEMB      45              0.0000000000
      5459        45  PMPE      C34            30.6454874109        8.7405316462       11.9929438709  MEMB      45              0.0000000000
      5460        45  PMPE      H4X            29.5390904640        8.7644726128       11.8947937669  MEMB      45              0.0000000000
      5461        45  PMPE      H4Y            31.0303962586        7.7258273344       12.2307275154  MEMB      45              0.0000000000
      5462        45  PMPE      C35            31.0726323998        9.1840383656       10.5509997215  MEMB      45              0.0000000000
      5463        45  PMPE      H5X            31.1875356926        8.2310428448        9.9916093298  MEMB      45              0.0000000000
      5464        45  PMPE      H5Y            32.0393283559        9.7299582892       10.5933228991  MEMB      45              0.0000000000
      5465        45  PMPE      C36            30.1099767819       10.1750286733        9.9356711756  MEMB      45              0.0000000000
      5466        45  PMPE      H6X            30.1500526998       11.0565213676       10.6107159922  MEMB      45              0.0000000000
      5467        45  PMPE      H6Y            29.0578343126        9.8716186957       10.1234460234  MEMB      45              0.0000000000
      5468        45  PMPE      C37            30.2838708241       10.6498578591        8.4756877389  MEMB      45              0.0000000000
      5469        45  PMPE      H7X            29.3766733784       11.1813950195        8.1168266258  MEMB      45              0.0000000000
      5470        45  PMPE      H7Y            30.3391745055        9.7622035646        7.8098561106  MEMB      45              0.0000000000
      5471        45  PMPE      C38            31.4128413674       11.6317870103        8.2157220149  MEMB      45              0.0000000000
      5472        45  PMPE      H8X            32.3567820672       11.0484966989        8.1603241201  MEMB      45              0.0000000000
      5473        45  PMPE      H8Y            31.5268745769       12.2827589052        9.1087794697  MEMB      45              0.0000000000
      5474        45  PMPE      C39            31.3665955039       12.4904241181        6.9395841858  MEMB      45              0.0000000000
      5475        45  PMPE      H9X            32.2482345002       13.1648274999        6.8925354759  MEMB      45              0.0000000000
      5476        45  PMPE      H9Y            30.4750011132       13.1511787638        6.9923433881  MEMB      45              0.0000000000
      5477        45  PMPE      C310           31.2455879370       11.5272322552        5.6418211718  MEMB      45              0.0000000000
      5478        45  PMPE      H10X           30.3047600164       10.9364168182        5.6317710032  MEMB      45              0.0000000000
      5479        45  PMPE      H10Y           32.1878394058       10.9460190287        5.5486849416  MEMB      45              0.0000000000
      5480        45  PMPE      C311           31.1692629944       12.4100949255        4.4376011450  MEMB      45              0.0000000000
      5481        45  PMPE      H11X           32.0792223405       13.0420311081        4.3542252374  MEMB      45              0.0000000000
      5482        45  PMPE      H11Y           30.2723653660       13.0654255965        4.4585182263  MEMB      45              0.0000000000
      5483        45  PMPE      C312           31.2025715466       11.6544226303        3.0559359244  MEMB      45              0.0000000000
      5484        45  PMPE      H12X           32.0675647262       10.9601318020        2.9921584172  MEMB      45              0.0000000000
      5485        45  PMPE      H12Y           31.4587512659       12.4369886110        2.3100920466  MEMB      45              0.0000000000
      5486        45  PMPE      C313           29.8776564637       11.0338910445        2.6666990335  MEMB      45              0.0000000000
      5487        45  PMPE      H13X           29.0670723561       11.7595735497        2.8917749518  MEMB      45              0.0000000000
      5488        45  PMPE      H13Y           29.6836715311       10.1145894399        3.2596373685  MEMB      45              0.0000000000
      5489        45  PMPE      C314           29.5668902206       10.5789801524        1.2645357096  MEMB      45              0.0000000000
      5490        45  PMPE      H14X           30.3068708886        9.9603341608        0.7131504327  MEMB      45              0.0000000000
      5491        45  PMPE      H14Y           29.6677906563       11.4182943094        0.5436392847  MEMB      45              0.0000000000
      5492        45  PMPE      C315           28.1784866904        9.9471228985        1.0352035996  MEMB      45              0.0000000000
      5493        45  PMPE      H15X           28.2447152489        8.9247992837        1.4650742601  MEMB      45              0.0000000000
      5494        45  PMPE      H15Y           28.0350595134        9.8908837452       -0.0650638591  MEMB      45              0.0000000000
      5495        45  PMPE      C316           26.9923284712       10.7546836792        1.5722161019  MEMB      45              0.0000000000
      5496        45  PMPE      H16X           26.0719499531       10.1779693713        1.3384942182  MEMB      45              0.0000000000
      5497        45  PMPE      H16Y           26.8281662045       11.6955669402        1.0046682629  MEMB      45              0.0000000000
      5498        45  PMPE      H16Z           27.1498763564       10.9039279073        2.6618150303  MEMB      45              0.0000000000
      5499        46  PMPE      N               4.2031640118      -26.9950710573       17.8103446151  MEMB      46              0.0000000000
      5500        46  PMPE      HN1             3.4028015631      -26.7468273383       18.4262951560  MEMB      46              0.0000000000
      5501        46  PMPE      HN2             4.8064576386      -26.1534001191       17.7142891268  MEMB      46              0.0000000000
      5502        46  PMPE      HN3             3.9614403853      -27.1981832606       16.8194281760  MEMB      46              0.0000000000
      5503        46  PMPE      C12             5.0562817066      -28.0872974566       18.4326659854  MEMB      46              0.0000000000
      5504        46  PMPE      H12A            5.2906599308      -27.6514035456       19.4273440738  MEMB      46              0.0000000000
      5505        46  PMPE      H12B            6.0045351943      -28.1931524946       17.8635165079  MEMB      46              0.0000000000
      5506        46  PMPE      C11             4.3639667561      -29.4898088690       18.6023985696  MEMB      46              0.0000000000
      5507        46  PMPE      H11A            4.9188492730      -30.0521510755       19.3835500108  MEMB      46              0.0000000000
      5508        46  PMPE      H11B            4.5821094333      -30.0523194386       17.6694909939  MEMB      46              0.0000000000
      5509        46  PMPE      P               2.1691824471      -30.7455404709       19.4574276085  MEMB      46              0.0000000000
      5510        46  PMPE      O13             0.7743448451      -30.7061299125       18.9736203052  MEMB      46              0.0000000000
      5511        46  PMPE      O14             2.2279802556      -30.6087992784       20.9127474002  MEMB      46              0.0000000000
      5512        46  PMPE      O11             3.0167148298      -32.0815717921       19.0578281706  MEMB      46              0.0000000000
      5513        46  PMPE      O12             2.9434131236      -29.5023979660       18.7529673560  MEMB      46              0.0000000000
      5514        46  PMPE      C1              2.4485967885      -33.1551015492       18.3966786792  MEMB      46              0.0000000000
      5515        46  PMPE      HA              1.3487393732      -33.3108119126       18.4163997247  MEMB      46              0.0000000000
      5516        46  PMPE      HB              3.0171665387      -34.0625438508       18.6926480224  MEMB      46              0.0000000000
      5517        46  PMPE      C2              2.7980706609      -33.0960295602       16.8176170419  MEMB      46              0.0000000000
      5518        46  PMPE      HS              2.8151841886      -34.1253931425       16.3999586621  MEMB      46              0.0000000000
      5519        46  PMPE      O21             4.0575436892      -32.4489096377       16.5611612378  MEMB      46              0.0000000000
      5520        46  PMPE      C21             4.7905008731      -32.8597787777       15.5291818464  MEMB      46              0.0000000000
      5521        46  PMPE      O22             4.4778769720      -33.6890835398       14.6521394056  MEMB      46              0.0000000000
      5522        46  PMPE      C22             6.0881847308      -32.0827873297       15.5226798166  MEMB      46              0.0000000000
      5523        46  PMPE      H2R             6.8407191489      -32.4604770929       16.2474995995  MEMB      46              0.0000000000
      5524        46  PMPE      H2S             5.8561058092      -31.0378856088       15.8204056667  MEMB      46              0.0000000000
      5525        46  PMPE      C3              1.7262903839      -32.4262732657       15.9625922230  MEMB      46              0.0000000000
      5526        46  PMPE      HX              0.7647980490      -32.9688538376       16.0869293375  MEMB      46              0.0000000000
      5527        46  PMPE      HY              2.0566847178      -32.5134326249       14.9054434710  MEMB      46              0.0000000000
      5528        46  PMPE      O31             1.5547773582      -31.0737795429       16.3135121719  MEMB      46              0.0000000000
      5529        46  PMPE      C31             0.7758963958      -30.4075571656       15.4196880479  MEMB      46              0.0000000000
      5530        46  PMPE      O32            -0.0348538039      -30.9563681943       14.7188160543  MEMB      46              0.0000000000
      5531        46  PMPE      C32             0.9910516843      -28.8597590832       15.4526880420  MEMB      46              0.0000000000
      5532        46  PMPE      H2X             0.8146708057      -28.6328315500       16.5258677610  MEMB      46              0.0000000000
      5533        46  PMPE      H2Y             0.2164791204      -28.5152203027       14.7345992928  MEMB      46              0.0000000000
      5534        46  PMPE      C23             6.8484892145      -32.0745550688       14.1829241623  MEMB      46              0.0000000000
      5535        46  PMPE      H3R             6.1404606821      -31.6618835527       13.4327785386  MEMB      46              0.0000000000
      5536        46  PMPE      H3S             7.1072005577      -33.0728807034       13.7697224885  MEMB      46              0.0000000000
      5537        46  PMPE      C24             8.1422391676      -31.3113575449       14.1794613762  MEMB      46              0.0000000000
      5538        46  PMPE      H4R             8.8775813783      -31.6372150571       14.9458883061  MEMB      46              0.0000000000
      5539        46  PMPE      H4S             7.9213974184      -30.2464313287       14.4063577390  MEMB      46              0.0000000000
      5540        46  PMPE      C25             9.0124100670      -31.4330258598       12.8580840432  MEMB      46              0.0000000000
      5541        46  PMPE      H5R             9.2916616893      -32.4194229382       12.4298780616  MEMB      46              0.0000000000
      5542        46  PMPE      H5S             9.9777828306      -30.8969276869       12.9804544206  MEMB      46              0.0000000000
      5543        46  PMPE      C26             8.3229552726      -30.6764033485       11.7506406113  MEMB      46              0.0000000000
      5544        46  PMPE      H6R             7.9965882924      -29.6351618593       11.9594988160  MEMB      46              0.0000000000
      5545        46  PMPE      H6S             7.4818043188      -31.2650371572       11.3260273097  MEMB      46              0.0000000000
      5546        46  PMPE      C27             9.1355509378      -30.4324785734       10.4271565379  MEMB      46              0.0000000000
      5547        46  PMPE      H7R             9.8643636022      -31.2465654631       10.2261218684  MEMB      46              0.0000000000
      5548        46  PMPE      H7S             9.8530737896      -29.6260210134       10.6900404236  MEMB      46              0.0000000000
      5549        46  PMPE      C28             8.1959504697      -29.9845603577        9.2157203650  MEMB      46              0.0000000000
      5550        46  PMPE      H8R             7.8919286029      -28.9505677932        9.4854450493  MEMB      46              0.0000000000
      5551        46  PMPE      H8S             7.3119988087      -30.6564762586        9.2541864655  MEMB      46              0.0000000000
      5552        46  PMPE      C29             8.9086738108      -30.2117775374        7.8263556861  MEMB      46              0.0000000000
      5553        46  PMPE      H9R             9.2896842208      -31.2081067306        7.5157435134  MEMB      46              0.0000000000
      5554        46  PMPE      C217            9.4054098426      -29.0294840816        6.9293680292  MEMB      46              0.0000000000
      5555        46  PMPE      H17R           10.2949965205      -29.3430639256        6.3972100270  MEMB      46              0.0000000000
      5556        46  PMPE      H17S            9.5092410821      -28.2821892838        7.7063227418  MEMB      46              0.0000000000
      5557        46  PMPE      C210            8.1169054476      -29.7091602175        6.6424324768  MEMB      46              0.0000000000
      5558        46  PMPE      H10R            8.0686796982      -30.4840476286        5.8477348896  MEMB      46              0.0000000000
      5559        46  PMPE      C211            6.8589660948      -28.7843033139        6.8699665382  MEMB      46              0.0000000000
      5560        46  PMPE      H11R            7.0962146131      -28.0432959036        7.6630249663  MEMB      46              0.0000000000
      5561        46  PMPE      H11S            6.0269227534      -29.4521149028        7.1798905166  MEMB      46              0.0000000000
      5562        46  PMPE      C212            6.3817106085      -28.1475432953        5.5373500403  MEMB      46              0.0000000000
      5563        46  PMPE      H12R            6.1963048268      -28.9909394562        4.8383301376  MEMB      46              0.0000000000
      5564        46  PMPE      H12S            7.2590360560      -27.6610886250        5.0598735630  MEMB      46              0.0000000000
      5565        46  PMPE      C213            5.1776802229      -27.1733901306        5.7652301673  MEMB      46              0.0000000000
      5566        46  PMPE      H13R            5.5800713537      -26.1989094543        6.1156447124  MEMB      46              0.0000000000
      5567        46  PMPE      H13S            4.5239325434      -27.6739171379        6.5111581802  MEMB      46              0.0000000000
      5568        46  PMPE      C214            4.3505112335      -26.8450402225        4.4831508719  MEMB      46              0.0000000000
      5569        46  PMPE      H14R            3.5092535915      -26.1299935732        4.6069024001  MEMB      46              0.0000000000
      5570        46  PMPE      H14S            3.8906510268      -27.8168824518        4.2032000285  MEMB      46              0.0000000000
      5571        46  PMPE      C215            5.2153070273      -26.4696540442        3.2210118085  MEMB      46              0.0000000000
      5572        46  PMPE      H15R            5.8750038296      -27.3452464810        3.0408473094  MEMB      46              0.0000000000
      5573        46  PMPE      H15S            5.8688308427      -25.6056358520        3.4673857178  MEMB      46              0.0000000000
      5574        46  PMPE      C216            4.4880630322      -26.1140465538        1.8642469776  MEMB      46              0.0000000000
      5575        46  PMPE      H16R            5.1811177775      -25.8653579697        1.0322922755  MEMB      46              0.0000000000
      5576        46  PMPE      H16S            3.7938000218      -26.9032857882        1.5044946926  MEMB      46              0.0000000000
      5577        46  PMPE      H16T            3.8518643718      -25.2078020638        1.9553116252  MEMB      46              0.0000000000
      5578        46  PMPE      C33             2.4166389003      -28.5539022169       15.0144496681  MEMB      46              0.0000000000
      5579        46  PMPE      H3X             3.1941181270      -29.1516088664       15.5365549140  MEMB      46              0.0000000000
      5580        46  PMPE      H3Y             2.6406494293      -27.5315608104       15.3872210579  MEMB      46              0.0000000000
      5581        46  PMPE      C34             2.6898720897      -28.6485654780       13.4795105385  MEMB      46              0.0000000000
      5582        46  PMPE      H4X             3.7690288675      -28.4893196141       13.2688391982  MEMB      46              0.0000000000
      5583        46  PMPE      H4Y             2.2201471044      -27.8401973133       12.8793267695  MEMB      46              0.0000000000
      5584        46  PMPE      C35             2.2541957977      -29.9975583610       12.8891613960  MEMB      46              0.0000000000
      5585        46  PMPE      H5X             1.1453961590      -29.9970401595       12.8192762443  MEMB      46              0.0000000000
      5586        46  PMPE      H5Y             2.6204476238      -30.7947179838       13.5708630318  MEMB      46              0.0000000000
      5587        46  PMPE      C36             2.9135163889      -30.3317480768       11.5515385092  MEMB      46              0.0000000000
      5588        46  PMPE      H6X             3.9928366828      -30.3585062320       11.8135933225  MEMB      46              0.0000000000
      5589        46  PMPE      H6Y             2.7261940573      -29.5374457770       10.7976718031  MEMB      46              0.0000000000
      5590        46  PMPE      C37             2.5043025849      -31.6780378868       11.1285539588  MEMB      46              0.0000000000
      5591        46  PMPE      H7X             1.4183053013      -31.7149659029       10.8971086563  MEMB      46              0.0000000000
      5592        46  PMPE      H7Y             2.6237973544      -32.4147362404       11.9515464837  MEMB      46              0.0000000000
      5593        46  PMPE      C38             3.2724173535      -32.2510466282        9.9052907351  MEMB      46              0.0000000000
      5594        46  PMPE      H8X             3.0596150956      -33.3397271041        9.8435567146  MEMB      46              0.0000000000
      5595        46  PMPE      H8Y             4.3527274385      -32.1765240191       10.1536804711  MEMB      46              0.0000000000
      5596        46  PMPE      C39             2.9975826681      -31.5569125581        8.5664625176  MEMB      46              0.0000000000
      5597        46  PMPE      H9X             3.3936662898      -30.5202027907        8.6181517901  MEMB      46              0.0000000000
      5598        46  PMPE      H9Y             1.9270842354      -31.3023598845        8.4129791738  MEMB      46              0.0000000000
      5599        46  PMPE      C310            3.7402559474      -32.2390422836        7.4507177646  MEMB      46              0.0000000000
      5600        46  PMPE      H10X            3.2705342479      -33.2409208661        7.3511098878  MEMB      46              0.0000000000
      5601        46  PMPE      H10Y            4.8013725295      -32.3715773576        7.7520268898  MEMB      46              0.0000000000
      5602        46  PMPE      C311            3.5711263753      -31.5024112077        6.0845771294  MEMB      46              0.0000000000
      5603        46  PMPE      H11X            3.9628084068      -30.4682161298        6.1910979745  MEMB      46              0.0000000000
      5604        46  PMPE      H11Y            2.4958180594      -31.5921928383        5.8200544745  MEMB      46              0.0000000000
      5605        46  PMPE      C312            4.2660863018      -32.2437825370        4.8981170889  MEMB      46              0.0000000000
      5606        46  PMPE      H12X            3.8671254255      -33.2794907328        4.9477134953  MEMB      46              0.0000000000
      5607        46  PMPE      H12Y            5.3683452000      -32.2401049074        5.0371590866  MEMB      46              0.0000000000
      5608        46  PMPE      C313            3.9563144956      -31.7168814664        3.3921785458  MEMB      46              0.0000000000
      5609        46  PMPE      H13X            4.0877904673      -30.6139872164        3.3665003722  MEMB      46              0.0000000000
      5610        46  PMPE      H13Y            2.9179266030      -31.9286833312        3.0586942869  MEMB      46              0.0000000000
      5611        46  PMPE      C314            4.8515647035      -32.2792538922        2.3281260007  MEMB      46              0.0000000000
      5612        46  PMPE      H14X            4.5188509031      -33.3134766443        2.0957348174  MEMB      46              0.0000000000
      5613        46  PMPE      H14Y            5.8920271768      -32.3444681986        2.7121913927  MEMB      46              0.0000000000
      5614        46  PMPE      C315            4.8807443612      -31.3965065169        0.9776649716  MEMB      46              0.0000000000
      5615        46  PMPE      H15X            5.0688972604      -30.3320961632        1.2344724143  MEMB      46              0.0000000000
      5616        46  PMPE      H15Y            3.8617182026      -31.5387296145        0.5585234360  MEMB      46              0.0000000000
      5617        46  PMPE      C316            5.8403591274      -31.8121704372       -0.1299996401  MEMB      46              0.0000000000
      5618        46  PMPE      H16X            6.8738495046      -31.8775830353        0.2724179802  MEMB      46              0.0000000000
      5619        46  PMPE      H16Y            5.8507403672      -31.1430499709       -1.0168420055  MEMB      46              0.0000000000
      5620        46  PMPE      H16Z            5.5009583969      -32.7918794253       -0.5291216469  MEMB      46              0.0000000000
      5621        47  PMPG      C13           -31.3445346805        2.6328376168       20.7848204915  MEMB      47              0.0000000000
      5622        47  PMPG      H13A          -31.8807282994        3.1478891808       19.9592666688  MEMB      47              0.0000000000
      5623        47  PMPG      H13B          -31.7525107088        3.0328408419       21.7376447882  MEMB      47              0.0000000000
      5624        47  PMPG      OC3           -30.0314304283        3.1684971648       20.6668566528  MEMB      47              0.0000000000
      5625        47  PMPG      HO3           -30.2012872826        4.1124375572       20.6253191879  MEMB      47              0.0000000000
      5626        47  PMPG      C12           -31.2766890771        1.1244367864       20.8859096872  MEMB      47              0.0000000000
      5627        47  PMPG      H12A          -32.3201190446        0.7399936407       20.8069387388  MEMB      47              0.0000000000
      5628        47  PMPG      OC2           -30.7605128442        0.7394757051       22.1608245677  MEMB      47              0.0000000000
      5629        47  PMPG      HO2           -30.6339833802       -0.2297620021       22.0644637785  MEMB      47              0.0000000000
      5630        47  PMPG      C11           -30.4311895295        0.4737603314       19.7331284838  MEMB      47              0.0000000000
      5631        47  PMPG      H11A          -30.3951483468       -0.6323509822       19.8308001398  MEMB      47              0.0000000000
      5632        47  PMPG      H11B          -29.3475956772        0.6140505406       19.9342850092  MEMB      47              0.0000000000
      5633        47  PMPG      P             -30.3607270749        0.3551626955       17.1091463623  MEMB      47              0.0000000000
      5634        47  PMPG      O13           -30.9694560763       -1.0132228027       17.0093361307  MEMB      47              0.0000000000
      5635        47  PMPG      O14           -28.8858359823        0.4484257887       17.0419055807  MEMB      47              0.0000000000
      5636        47  PMPG      O11           -31.0887574011        1.3955431453       16.1270642908  MEMB      47              0.0000000000
      5637        47  PMPG      O12           -30.7926078894        0.9733601149       18.4810077571  MEMB      47              0.0000000000
      5638        47  PMPG      C1            -32.2052931690        2.0524521995       16.6706647415  MEMB      47              0.0000000000
      5639        47  PMPG      HA            -31.9181468934        2.7776940181       17.4617983423  MEMB      47              0.0000000000
      5640        47  PMPG      HB            -32.8808713569        1.2582614007       17.0543002842  MEMB      47              0.0000000000
      5641        47  PMPG      C2            -33.0410354056        2.7059815114       15.5676054074  MEMB      47              0.0000000000
      5642        47  PMPG      HS            -33.9898233388        2.9518114178       16.0907593490  MEMB      47              0.0000000000
      5643        47  PMPG      O21           -33.3171095754        1.7362041424       14.5666910432  MEMB      47              0.0000000000
      5644        47  PMPG      C21           -34.2085863395        2.0412568131       13.6456259860  MEMB      47              0.0000000000
      5645        47  PMPG      O22           -34.8524471530        3.0699073599       13.7365018444  MEMB      47              0.0000000000
      5646        47  PMPG      C22           -34.3080918015        0.9980563439       12.5822254442  MEMB      47              0.0000000000
      5647        47  PMPG      H2R           -35.3713549578        0.6941581107       12.4752739735  MEMB      47              0.0000000000
      5648        47  PMPG      H2S           -33.6862221542        0.1266700001       12.8793533380  MEMB      47              0.0000000000
      5649        47  PMPG      C3            -32.4226503159        3.9989118770       14.9449885925  MEMB      47              0.0000000000
      5650        47  PMPG      HX            -32.0066641710        4.5709194499       15.8017752338  MEMB      47              0.0000000000
      5651        47  PMPG      HY            -33.0895754519        4.6745859710       14.3679305032  MEMB      47              0.0000000000
      5652        47  PMPG      O31           -31.3785758817        3.6291141270       14.1159378501  MEMB      47              0.0000000000
      5653        47  PMPG      C31           -30.1655309427        3.9748183762       14.4742522384  MEMB      47              0.0000000000
      5654        47  PMPG      O32           -29.8561991200        4.8595872893       15.3136991954  MEMB      47              0.0000000000
      5655        47  PMPG      C32           -29.2361168760        3.3176318334       13.4530075209  MEMB      47              0.0000000000
      5656        47  PMPG      H2X           -28.2506666106        3.0972289237       13.9162906380  MEMB      47              0.0000000000
      5657        47  PMPG      H2Y           -29.1014971640        3.9697798062       12.5636808985  MEMB      47              0.0000000000
      5658        47  PMPG      C23           -33.8626979259        1.6050128560       11.2684625826  MEMB      47              0.0000000000
      5659        47  PMPG      H3R           -32.8294831382        1.9676252962       11.4563472701  MEMB      47              0.0000000000
      5660        47  PMPG      H3S           -34.4843473782        2.4713071714       10.9563613325  MEMB      47              0.0000000000
      5661        47  PMPG      C24           -33.8518671351        0.8133082589        9.9560511495  MEMB      47              0.0000000000
      5662        47  PMPG      H4R           -34.8090217462        0.8785022199        9.3957603431  MEMB      47              0.0000000000
      5663        47  PMPG      H4S           -33.6940920254       -0.2646141372       10.1740224042  MEMB      47              0.0000000000
      5664        47  PMPG      C25           -32.7602601664        1.1679961012        8.9544169164  MEMB      47              0.0000000000
      5665        47  PMPG      H5R           -32.4953504534        0.2774897970        8.3452018842  MEMB      47              0.0000000000
      5666        47  PMPG      H5S           -31.8352404516        1.6574216102        9.3274072488  MEMB      47              0.0000000000
      5667        47  PMPG      C26           -33.3510232980        2.0098270429        7.8021615968  MEMB      47              0.0000000000
      5668        47  PMPG      H6R           -34.2123781094        1.5384767994        7.2823371782  MEMB      47              0.0000000000
      5669        47  PMPG      H6S           -32.4722666597        1.9649140531        7.1238617601  MEMB      47              0.0000000000
      5670        47  PMPG      C27           -33.5522140690        3.4762307276        8.1368967543  MEMB      47              0.0000000000
      5671        47  PMPG      H7R           -32.5356873423        3.8072657654        8.4392368964  MEMB      47              0.0000000000
      5672        47  PMPG      H7S           -34.2851523039        3.7019097086        8.9407564476  MEMB      47              0.0000000000
      5673        47  PMPG      C28           -33.8916948871        4.3029807677        6.8543218054  MEMB      47              0.0000000000
      5674        47  PMPG      H8R           -34.8715927729        4.0477486298        6.3971814172  MEMB      47              0.0000000000
      5675        47  PMPG      H8S           -33.1772632880        4.0218310870        6.0512879787  MEMB      47              0.0000000000
      5676        47  PMPG      C29           -33.9662099810        5.7693689288        7.0580155187  MEMB      47              0.0000000000
      5677        47  PMPG      H9R           -34.2997907536        6.1710145910        8.0386918091  MEMB      47              0.0000000000
      5678        47  PMPG      C217          -32.9930915313        6.6003225933        6.3271102602  MEMB      47              0.0000000000
      5679        47  PMPG      H17R          -32.7023406064        7.2787749593        7.1196091359  MEMB      47              0.0000000000
      5680        47  PMPG      H17S          -32.3716606972        6.1429010450        5.5671901441  MEMB      47              0.0000000000
      5681        47  PMPG      C210          -34.4528889827        6.6137757502        5.9243165516  MEMB      47              0.0000000000
      5682        47  PMPG      H10R          -34.9381194131        7.5787564577        6.1844799704  MEMB      47              0.0000000000
      5683        47  PMPG      C211          -34.6878667778        6.0657316515        4.4472235306  MEMB      47              0.0000000000
      5684        47  PMPG      H11R          -34.1370993255        6.8204390525        3.8460640540  MEMB      47              0.0000000000
      5685        47  PMPG      H11S          -34.1476079667        5.1089255840        4.2830176387  MEMB      47              0.0000000000
      5686        47  PMPG      C212          -36.1865861492        5.8978564293        4.1358701452  MEMB      47              0.0000000000
      5687        47  PMPG      H12R          -36.7044696415        6.6722349722        4.7412261695  MEMB      47              0.0000000000
      5688        47  PMPG      H12S          -36.5987373494        4.9549591797        4.5546755940  MEMB      47              0.0000000000
      5689        47  PMPG      C213          -36.6337212821        5.9927498387        2.6785888816  MEMB      47              0.0000000000
      5690        47  PMPG      H13R          -36.5281338306        7.0164502708        2.2600096303  MEMB      47              0.0000000000
      5691        47  PMPG      H13S          -37.6985555792        5.6758291604        2.6754037102  MEMB      47              0.0000000000
      5692        47  PMPG      C214          -35.8919776243        5.1574513404        1.6563979324  MEMB      47              0.0000000000
      5693        47  PMPG      H14R          -34.7945401893        5.1618060804        1.8294087596  MEMB      47              0.0000000000
      5694        47  PMPG      H14S          -35.9229379862        5.6558719725        0.6639558565  MEMB      47              0.0000000000
      5695        47  PMPG      C215          -36.3586141459        3.7576548141        1.4822354296  MEMB      47              0.0000000000
      5696        47  PMPG      H15R          -36.1360584583        3.5121932349        0.4217934265  MEMB      47              0.0000000000
      5697        47  PMPG      H15S          -37.4450309417        3.6009575604        1.6538937989  MEMB      47              0.0000000000
      5698        47  PMPG      C216          -35.6053887152        2.7426555104        2.3708517712  MEMB      47              0.0000000000
      5699        47  PMPG      H16R          -36.0975502137        1.7519372888        2.4736920616  MEMB      47              0.0000000000
      5700        47  PMPG      H16S          -35.4556056482        3.0217964330        3.4357307765  MEMB      47              0.0000000000
      5701        47  PMPG      H16T          -34.6204281416        2.5930520609        1.8791283445  MEMB      47              0.0000000000
      5702        47  PMPG      C33           -29.7575650308        1.9560437575       12.9728342731  MEMB      47              0.0000000000
      5703        47  PMPG      H3X           -30.5461726587        2.0931684159       12.2023696319  MEMB      47              0.0000000000
      5704        47  PMPG      H3Y           -30.2299389444        1.4879300115       13.8628081647  MEMB      47              0.0000000000
      5705        47  PMPG      C34           -28.6264123562        1.0520584638       12.5304563815  MEMB      47              0.0000000000
      5706        47  PMPG      H4X           -29.1126588769        0.0786716373       12.3059491509  MEMB      47              0.0000000000
      5707        47  PMPG      H4Y           -28.0436354145        0.8755287614       13.4597193027  MEMB      47              0.0000000000
      5708        47  PMPG      C35           -27.8492265019        1.6902658876       11.3553013739  MEMB      47              0.0000000000
      5709        47  PMPG      H5X           -27.1916870094        2.4978541365       11.7422947198  MEMB      47              0.0000000000
      5710        47  PMPG      H5Y           -28.6699029591        2.0740895664       10.7122685458  MEMB      47              0.0000000000
      5711        47  PMPG      C36           -26.9387621046        0.7111277935       10.5187394807  MEMB      47              0.0000000000
      5712        47  PMPG      H6X           -26.4266254569        0.0398889617       11.2408719231  MEMB      47              0.0000000000
      5713        47  PMPG      H6Y           -26.0929623605        1.2608827617       10.0532146554  MEMB      47              0.0000000000
      5714        47  PMPG      C37           -27.7137464615       -0.0714631480        9.4541485031  MEMB      47              0.0000000000
      5715        47  PMPG      H7X           -28.6773546268       -0.4925375812        9.8125848843  MEMB      47              0.0000000000
      5716        47  PMPG      H7Y           -27.1458416618       -0.9717759556        9.1359622053  MEMB      47              0.0000000000
      5717        47  PMPG      C38           -28.1034131727        0.7315787179        8.2046310795  MEMB      47              0.0000000000
      5718        47  PMPG      H8X           -27.2240221058        1.2183487608        7.7312941410  MEMB      47              0.0000000000
      5719        47  PMPG      H8Y           -28.8250280230        1.5147135346        8.5213215670  MEMB      47              0.0000000000
      5720        47  PMPG      C39           -28.7924647477       -0.2062648493        7.1731982303  MEMB      47              0.0000000000
      5721        47  PMPG      H9X           -29.5090766643       -0.7551066354        7.8209327846  MEMB      47              0.0000000000
      5722        47  PMPG      H9Y           -28.1480473837       -0.9885821111        6.7181952629  MEMB      47              0.0000000000
      5723        47  PMPG      C310          -29.5258721199        0.7335992977        6.0864979870  MEMB      47              0.0000000000
      5724        47  PMPG      H10X          -28.7070666168        1.1479522142        5.4602471311  MEMB      47              0.0000000000
      5725        47  PMPG      H10Y          -29.9116943641        1.5790783892        6.6952899054  MEMB      47              0.0000000000
      5726        47  PMPG      C311          -30.5651814609        0.0441281942        5.2160188852  MEMB      47              0.0000000000
      5727        47  PMPG      H11X          -31.5005567503       -0.0185249808        5.8122309845  MEMB      47              0.0000000000
      5728        47  PMPG      H11Y          -30.1171247950       -0.9294041432        4.9231007031  MEMB      47              0.0000000000
      5729        47  PMPG      C312          -30.7749165524        0.7590344716        3.8158103019  MEMB      47              0.0000000000
      5730        47  PMPG      H12X          -31.7367062529        0.3727741043        3.4157047267  MEMB      47              0.0000000000
      5731        47  PMPG      H12Y          -29.8178838434        0.5694206092        3.2843443621  MEMB      47              0.0000000000
      5732        47  PMPG      C313          -30.9677778785        2.2971154331        3.8813212651  MEMB      47              0.0000000000
      5733        47  PMPG      H13X          -29.9824755979        2.7889720192        4.0282138162  MEMB      47              0.0000000000
      5734        47  PMPG      H13Y          -31.5880427042        2.5181555985        4.7761585219  MEMB      47              0.0000000000
      5735        47  PMPG      C314          -31.4343973543        3.0218214690        2.6379967874  MEMB      47              0.0000000000
      5736        47  PMPG      H14X          -32.4861609325        2.7570236853        2.3971730593  MEMB      47              0.0000000000
      5737        47  PMPG      H14Y          -30.7640861506        2.6888154311        1.8169538764  MEMB      47              0.0000000000
      5738        47  PMPG      C315          -31.3693308961        4.5591417340        2.6541688341  MEMB      47              0.0000000000
      5739        47  PMPG      H15X          -30.4874254693        4.8436364243        3.2670520332  MEMB      47              0.0000000000
      5740        47  PMPG      H15Y          -32.2425950516        5.0881679365        3.0921892071  MEMB      47              0.0000000000
      5741        47  PMPG      C316          -31.2435599596        5.1478261029        1.2739327485  MEMB      47              0.0000000000
      5742        47  PMPG      H16X          -31.2742347499        6.2543521155        1.3686972180  MEMB      47              0.0000000000
      5743        47  PMPG      H16Y          -32.0722177172        4.8099429835        0.6155381907  MEMB      47              0.0000000000
      5744        47  PMPG      H16Z          -30.2625244702        4.7521939067        0.9342779265  MEMB      47              0.0000000000
      5745        48  PYPG      C13           -30.2010914607       -7.5987732520       21.4949874269  MEMB      48              0.0000000000
      5746        48  PYPG      H13A          -31.1928486614       -8.0925418037       21.4117329234  MEMB      48              0.0000000000
      5747        48  PYPG      H13B          -29.7999897280       -7.8765957123       22.4931121476  MEMB      48              0.0000000000
      5748        48  PYPG      OC3           -30.3086650058       -6.1691339789       21.3447809235  MEMB      48              0.0000000000
      5749        48  PYPG      HO3           -30.4776756209       -6.0931073922       20.4028384454  MEMB      48              0.0000000000
      5750        48  PYPG      C12           -29.0376304141       -8.1473935224       20.5896316507  MEMB      48              0.0000000000
      5751        48  PYPG      H12A          -29.1382668286       -9.2571758466       20.5574673071  MEMB      48              0.0000000000
      5752        48  PYPG      OC2           -27.7716418150       -7.8364289720       21.1732537932  MEMB      48              0.0000000000
      5753        48  PYPG      HO2           -27.1350923007       -8.0974850300       20.4722749843  MEMB      48              0.0000000000
      5754        48  PYPG      C11           -29.0193514514       -7.6652153362       19.0845449173  MEMB      48              0.0000000000
      5755        48  PYPG      H11A          -28.2719900834       -8.2244576098       18.4820334337  MEMB      48              0.0000000000
      5756        48  PYPG      H11B          -28.8562863697       -6.5714158483       19.1910039959  MEMB      48              0.0000000000
      5757        48  PYPG      P             -30.6587924239       -7.1796262256       17.2392857926  MEMB      48              0.0000000000
      5758        48  PYPG      O13           -29.6354976655       -7.5019222816       16.2011287400  MEMB      48              0.0000000000
      5759        48  PYPG      O14           -30.8418990933       -5.7905176918       17.5757500563  MEMB      48              0.0000000000
      5760        48  PYPG      O11           -32.0542092980       -7.7650872081       16.7052304786  MEMB      48              0.0000000000
      5761        48  PYPG      O12           -30.2934853911       -7.9388145274       18.5914061872  MEMB      48              0.0000000000
      5762        48  PYPG      C1            -32.7580868126       -8.8863448339       17.2399680111  MEMB      48              0.0000000000
      5763        48  PYPG      HA            -33.3494265017       -8.6820568953       18.1580664950  MEMB      48              0.0000000000
      5764        48  PYPG      HB            -32.1288539249       -9.7758475267       17.4571594190  MEMB      48              0.0000000000
      5765        48  PYPG      C2            -33.7174425232       -9.4425718394       16.1364978257  MEMB      48              0.0000000000
      5766        48  PYPG      HS            -34.3109939722      -10.2997886417       16.5201610916  MEMB      48              0.0000000000
      5767        48  PYPG      O21           -32.9667488462       -9.9009899380       15.0104589916  MEMB      48              0.0000000000
      5768        48  PYPG      C21           -33.6017949339      -10.7543871834       14.1681378776  MEMB      48              0.0000000000
      5769        48  PYPG      O22           -34.7337885897      -11.1280218868       14.1824353310  MEMB      48              0.0000000000
      5770        48  PYPG      C22           -32.5411647717      -11.2811487514       13.1532683519  MEMB      48              0.0000000000
      5771        48  PYPG      H2R           -31.6876650875      -11.8517637937       13.5778361351  MEMB      48              0.0000000000
      5772        48  PYPG      H2S           -32.0393623173      -10.4402409793       12.6284923835  MEMB      48              0.0000000000
      5773        48  PYPG      C3            -34.7646654533       -8.4318013495       15.6294871695  MEMB      48              0.0000000000
      5774        48  PYPG      HX            -35.4038861333       -8.0608029454       16.4589919072  MEMB      48              0.0000000000
      5775        48  PYPG      HY            -35.4113804393       -8.9751500103       14.9077857390  MEMB      48              0.0000000000
      5776        48  PYPG      O31           -34.0333571009       -7.3702086904       14.9397040202  MEMB      48              0.0000000000
      5777        48  PYPG      C31           -34.3826464095       -7.0019441893       13.7556832808  MEMB      48              0.0000000000
      5778        48  PYPG      O32           -35.2615574656       -7.4288132543       13.0611142183  MEMB      48              0.0000000000
      5779        48  PYPG      C32           -33.6228411742       -5.7830807868       13.2939508348  MEMB      48              0.0000000000
      5780        48  PYPG      H2X           -34.3999358709       -5.0244078005       13.0597286748  MEMB      48              0.0000000000
      5781        48  PYPG      H2Y           -33.0476334652       -5.3971080745       14.1625602292  MEMB      48              0.0000000000
      5782        48  PYPG      C23           -33.1851873180      -12.2212317837       12.0367480527  MEMB      48              0.0000000000
      5783        48  PYPG      H3R           -33.6082630991      -13.1081551761       12.5551056236  MEMB      48              0.0000000000
      5784        48  PYPG      H3S           -32.3147438633      -12.5824570186       11.4483898382  MEMB      48              0.0000000000
      5785        48  PYPG      C24           -34.2590232135      -11.6772430425       11.0675230352  MEMB      48              0.0000000000
      5786        48  PYPG      H4R           -35.2253160850      -11.7233506050       11.6138496448  MEMB      48              0.0000000000
      5787        48  PYPG      H4S           -34.3515799845      -12.3631057943       10.1984158982  MEMB      48              0.0000000000
      5788        48  PYPG      C25           -34.0488449372      -10.2680724997       10.6370795757  MEMB      48              0.0000000000
      5789        48  PYPG      H5R           -33.0182872535      -10.1060096080       10.2549702420  MEMB      48              0.0000000000
      5790        48  PYPG      H5S           -34.2398245758       -9.6000690434       11.5040388284  MEMB      48              0.0000000000
      5791        48  PYPG      C26           -34.9971389672       -9.7933225120        9.4791180598  MEMB      48              0.0000000000
      5792        48  PYPG      H6R           -36.0485631391       -9.8432770868        9.8345513716  MEMB      48              0.0000000000
      5793        48  PYPG      H6S           -35.0518640267      -10.4053790767        8.5535305700  MEMB      48              0.0000000000
      5794        48  PYPG      C27           -34.8510125652       -8.3554578506        9.0454600917  MEMB      48              0.0000000000
      5795        48  PYPG      H7R           -33.8181554071       -8.2317540403        8.6553010090  MEMB      48              0.0000000000
      5796        48  PYPG      H7S           -34.8827206127       -7.6907489253        9.9351103786  MEMB      48              0.0000000000
      5797        48  PYPG      C28           -35.9569838964       -7.8586438191        7.9728375646  MEMB      48              0.0000000000
      5798        48  PYPG      H8R           -36.9258353507       -7.7359819814        8.5025561579  MEMB      48              0.0000000000
      5799        48  PYPG      H8S           -36.0639864439       -8.6536585593        7.2041880304  MEMB      48              0.0000000000
      5800        48  PYPG      C29           -35.4680504006       -6.5455028816        7.3571032550  MEMB      48              0.0000000000
      5801        48  PYPG      H9R           -34.8396133849       -5.9577069247        8.0423497945  MEMB      48              0.0000000000
      5802        48  PYPG      C210          -35.4509852845       -6.1430034005        6.0513724628  MEMB      48              0.0000000000
      5803        48  PYPG      H10R          -35.4310485224       -5.0740118586        5.7928005242  MEMB      48              0.0000000000
      5804        48  PYPG      C211          -35.9452848595       -7.0178749558        4.9092806262  MEMB      48              0.0000000000
      5805        48  PYPG      H11R          -36.3452057228       -6.4023357035        4.0753160924  MEMB      48              0.0000000000
      5806        48  PYPG      H11S          -36.7676458551       -7.6647984219        5.2828221315  MEMB      48              0.0000000000
      5807        48  PYPG      C212          -34.9273764437       -7.9862237098        4.3631472935  MEMB      48              0.0000000000
      5808        48  PYPG      H12R          -34.3963676849       -8.5013068895        5.1920267167  MEMB      48              0.0000000000
      5809        48  PYPG      H12S          -34.1357192906       -7.4106617631        3.8374778041  MEMB      48              0.0000000000
      5810        48  PYPG      C213          -35.4084008561       -9.0848317102        3.3332861835  MEMB      48              0.0000000000
      5811        48  PYPG      H13R          -35.9698816518       -9.8413254986        3.9221643618  MEMB      48              0.0000000000
      5812        48  PYPG      H13S          -34.5213876003       -9.6872406034        3.0423704612  MEMB      48              0.0000000000
      5813        48  PYPG      C214          -36.1460572054       -8.5664872906        2.1224523062  MEMB      48              0.0000000000
      5814        48  PYPG      H14R          -37.0134567002       -7.9796841086        2.4933989841  MEMB      48              0.0000000000
      5815        48  PYPG      H14S          -35.4753732963       -7.8293914806        1.6313377788  MEMB      48              0.0000000000
      5816        48  PYPG      C215          -36.8398126782       -9.5823184472        1.1842627441  MEMB      48              0.0000000000
      5817        48  PYPG      H15R          -37.6869628860       -8.9760014565        0.7982080369  MEMB      48              0.0000000000
      5818        48  PYPG      H15S          -37.3001060708      -10.4098804548        1.7652902659  MEMB      48              0.0000000000
      5819        48  PYPG      C216          -35.8967070502      -10.1764689750        0.1555519517  MEMB      48              0.0000000000
      5820        48  PYPG      H16R          -35.4379941162       -9.2689122307       -0.2919342233  MEMB      48              0.0000000000
      5821        48  PYPG      H16S          -36.5498169151      -10.7103496974       -0.5674558748  MEMB      48              0.0000000000
      5822        48  PYPG      H16T          -35.0952494266      -10.8417708646        0.5420228153  MEMB      48              0.0000000000
      5823        48  PYPG      C33           -32.7214610903       -6.0556369595       12.0533651969  MEMB      48              0.0000000000
      5824        48  PYPG      H3X           -32.5199504923       -5.0944742015       11.5338646652  MEMB      48              0.0000000000
      5825        48  PYPG      H3Y           -33.2813904603       -6.7281505209       11.3688757252  MEMB      48              0.0000000000
      5826        48  PYPG      C34           -31.3875783647       -6.6681433095       12.4662068424  MEMB      48              0.0000000000
      5827        48  PYPG      H4X           -31.6749176082       -7.5214470435       13.1170754337  MEMB      48              0.0000000000
      5828        48  PYPG      H4Y           -30.7823743323       -6.0324806654       13.1473688070  MEMB      48              0.0000000000
      5829        48  PYPG      C35           -30.4267445699       -7.1217229150       11.2609438347  MEMB      48              0.0000000000
      5830        48  PYPG      H5X           -29.4708207823       -7.4076421569       11.7495957588  MEMB      48              0.0000000000
      5831        48  PYPG      H5Y           -30.2526559926       -6.2673614211       10.5724085288  MEMB      48              0.0000000000
      5832        48  PYPG      C36           -30.9205755817       -8.2340018609       10.4337410093  MEMB      48              0.0000000000
      5833        48  PYPG      H6X           -31.9084822910       -7.9364360586       10.0216546050  MEMB      48              0.0000000000
      5834        48  PYPG      H6Y           -30.9981448326       -9.1147902973       11.1064343436  MEMB      48              0.0000000000
      5835        48  PYPG      C37           -30.0564132951       -8.6976127230        9.2695298679  MEMB      48              0.0000000000
      5836        48  PYPG      H7X           -30.1670872872       -8.0866172381        8.3482495590  MEMB      48              0.0000000000
      5837        48  PYPG      H7Y           -29.0093246263       -8.7599545092        9.6356445329  MEMB      48              0.0000000000
      5838        48  PYPG      C38           -30.4294361037      -10.1168646510        8.7437641518  MEMB      48              0.0000000000
      5839        48  PYPG      H8X           -30.6006005257      -10.7219047356        9.6597061192  MEMB      48              0.0000000000
      5840        48  PYPG      H8Y           -29.5349196304      -10.5473768143        8.2449451741  MEMB      48              0.0000000000
      5841        48  PYPG      C39           -31.6377294966      -10.1987343888        7.8258680835  MEMB      48              0.0000000000
      5842        48  PYPG      H9X           -31.4295505304       -9.4572032715        7.0251723290  MEMB      48              0.0000000000
      5843        48  PYPG      H9Y           -32.5833648527       -9.8283104900        8.2762915587  MEMB      48              0.0000000000
      5844        48  PYPG      C310          -31.7142044242      -11.5828873192        7.1811011404  MEMB      48              0.0000000000
      5845        48  PYPG      H10X          -31.8664514824      -12.3869751094        7.9324889603  MEMB      48              0.0000000000
      5846        48  PYPG      H10Y          -30.6571750672      -11.7376890797        6.8760663386  MEMB      48              0.0000000000
      5847        48  PYPG      C311          -32.6891140151      -11.7072250385        5.9927734961  MEMB      48              0.0000000000
      5848        48  PYPG      H11X          -32.6321103964      -10.7026395651        5.5217323469  MEMB      48              0.0000000000
      5849        48  PYPG      H11Y          -33.7128898861      -11.7512195475        6.4220382505  MEMB      48              0.0000000000
      5850        48  PYPG      C312          -32.4059080847      -12.9220052186        5.0533507856  MEMB      48              0.0000000000
      5851        48  PYPG      H12X          -32.0414841233      -13.8409257136        5.5604022551  MEMB      48              0.0000000000
      5852        48  PYPG      H12Y          -33.3574065719      -13.0008413779        4.4852336925  MEMB      48              0.0000000000
      5853        48  PYPG      C313          -31.3554814403      -12.5204807022        3.9769183582  MEMB      48              0.0000000000
      5854        48  PYPG      H13X          -30.4445333408      -12.1469735761        4.4916870435  MEMB      48              0.0000000000
      5855        48  PYPG      H13Y          -31.0379760964      -13.4458148656        3.4503555801  MEMB      48              0.0000000000
      5856        48  PYPG      C314          -31.8701852651      -11.3865032148        3.0654176923  MEMB      48              0.0000000000
      5857        48  PYPG      H14X          -32.8803676533      -11.6018967975        2.6562008382  MEMB      48              0.0000000000
      5858        48  PYPG      H14Y          -32.0672433447      -10.4088692376        3.5550303694  MEMB      48              0.0000000000
      5859        48  PYPG      C315          -31.0150289899      -11.2817947953        1.7508413215  MEMB      48              0.0000000000
      5860        48  PYPG      H15X          -29.9604517357      -11.1103490039        2.0554640719  MEMB      48              0.0000000000
      5861        48  PYPG      H15Y          -31.1735745309      -12.1936978008        1.1363353520  MEMB      48              0.0000000000
      5862        48  PYPG      C316          -31.3555706430      -10.1786734528        0.7490711013  MEMB      48              0.0000000000
      5863        48  PYPG      H16X          -32.4222305649      -10.2196006654        0.4410417351  MEMB      48              0.0000000000
      5864        48  PYPG      H16Y          -30.6366562516      -10.0801199539       -0.0922194529  MEMB      48              0.0000000000
      5865        48  PYPG      H16Z          -31.3990793397       -9.1692819213        1.2111942520  MEMB      48              0.0000000000
      5866        49  PMPG      C13            13.7066041686       27.3975138434       21.0186881310  MEMB      49              0.0000000000
      5867        49  PMPG      H13A           14.2645954542       26.8338775889       20.2406899862  MEMB      49              0.0000000000
      5868        49  PMPG      H13B           14.3177172131       27.5055929108       21.9401982375  MEMB      49              0.0000000000
      5869        49  PMPG      OC3            12.6156457118       26.5636414063       21.3654278887  MEMB      49              0.0000000000
      5870        49  PMPG      HO3            12.1447455211       27.1114910949       21.9976570694  MEMB      49              0.0000000000
      5871        49  PMPG      C12            13.1519617001       28.8042084293       20.4919005560  MEMB      49              0.0000000000
      5872        49  PMPG      H12A           14.0358159874       29.4377386693       20.2465027693  MEMB      49              0.0000000000
      5873        49  PMPG      OC2            12.4130325899       29.4593498683       21.5237989789  MEMB      49              0.0000000000
      5874        49  PMPG      HO2            12.0145490128       30.2263637641       21.0573042175  MEMB      49              0.0000000000
      5875        49  PMPG      C11            12.2833230803       28.5839676350       19.1858540396  MEMB      49              0.0000000000
      5876        49  PMPG      H11A           11.4536018089       27.8801560206       19.4106489852  MEMB      49              0.0000000000
      5877        49  PMPG      H11B           12.9873873903       28.1898446367       18.4221254203  MEMB      49              0.0000000000
      5878        49  PMPG      P              11.2562637312       30.0416092995       17.2361255945  MEMB      49              0.0000000000
      5879        49  PMPG      O13            10.0338674021       30.9192556506       17.1785262045  MEMB      49              0.0000000000
      5880        49  PMPG      O14            11.1939100307       28.6936361410       16.6557805140  MEMB      49              0.0000000000
      5881        49  PMPG      O11            12.3870080223       30.8189887881       16.5694215051  MEMB      49              0.0000000000
      5882        49  PMPG      O12            11.7072835532       29.8860099112       18.7744765891  MEMB      49              0.0000000000
      5883        49  PMPG      C1             13.3628872093       31.5972560324       17.2097128649  MEMB      49              0.0000000000
      5884        49  PMPG      HA             13.6178344059       31.3003654516       18.2495103526  MEMB      49              0.0000000000
      5885        49  PMPG      HB             12.9175148333       32.6134093694       17.2679953489  MEMB      49              0.0000000000
      5886        49  PMPG      C2             14.7167367131       31.6339417050       16.4402845086  MEMB      49              0.0000000000
      5887        49  PMPG      HS             15.4125773934       32.2618159430       17.0368585192  MEMB      49              0.0000000000
      5888        49  PMPG      O21            14.6074743738       32.2778947689       15.1216537168  MEMB      49              0.0000000000
      5889        49  PMPG      C21            14.4656906406       33.5691561130       15.0885785333  MEMB      49              0.0000000000
      5890        49  PMPG      O22            14.1970064519       34.3282768353       16.0144289921  MEMB      49              0.0000000000
      5891        49  PMPG      C22            14.7605565272       34.0450946311       13.6857581151  MEMB      49              0.0000000000
      5892        49  PMPG      H2R            15.8110676481       34.3968592865       13.7694784154  MEMB      49              0.0000000000
      5893        49  PMPG      H2S            14.2716942349       35.0147829791       13.4511541128  MEMB      49              0.0000000000
      5894        49  PMPG      C3             15.2667285884       30.2492909635       16.2742472524  MEMB      49              0.0000000000
      5895        49  PMPG      HX             15.3079788056       29.6339840953       17.1983774614  MEMB      49              0.0000000000
      5896        49  PMPG      HY             16.3218001071       30.3018105231       15.9301734492  MEMB      49              0.0000000000
      5897        49  PMPG      O31            14.5187994956       29.5475828662       15.3227877048  MEMB      49              0.0000000000
      5898        49  PMPG      C31            14.9731846512       29.2408337390       14.1382694930  MEMB      49              0.0000000000
      5899        49  PMPG      O32            16.1235861145       29.3698027087       13.7772957980  MEMB      49              0.0000000000
      5900        49  PMPG      C32            13.8650432594       28.7273468017       13.2606145529  MEMB      49              0.0000000000
      5901        49  PMPG      H2X            13.0854644689       29.4985464305       13.0822070803  MEMB      49              0.0000000000
      5902        49  PMPG      H2Y            13.4085060546       27.9247861349       13.8785066931  MEMB      49              0.0000000000
      5903        49  PMPG      C23            14.4989981918       33.0289671878       12.5825791719  MEMB      49              0.0000000000
      5904        49  PMPG      H3R            13.4412675772       32.7053571492       12.4786404888  MEMB      49              0.0000000000
      5905        49  PMPG      H3S            15.0524627110       32.0868827353       12.7837629195  MEMB      49              0.0000000000
      5906        49  PMPG      C24            14.9936730317       33.6542403797       11.2302967038  MEMB      49              0.0000000000
      5907        49  PMPG      H4R            16.0785546568       33.8927710250       11.2089487627  MEMB      49              0.0000000000
      5908        49  PMPG      H4S            14.5836635609       34.6839373437       11.1532430262  MEMB      49              0.0000000000
      5909        49  PMPG      C25            14.6544061207       32.6908211699       10.0786091308  MEMB      49              0.0000000000
      5910        49  PMPG      H5R            13.9112144314       31.9194885747       10.3736230859  MEMB      49              0.0000000000
      5911        49  PMPG      H5S            15.6118291936       32.1879832903        9.8240191944  MEMB      49              0.0000000000
      5912        49  PMPG      C26            14.2749732272       33.4873272773        8.7704763172  MEMB      49              0.0000000000
      5913        49  PMPG      H6R            14.8826922757       34.4159293481        8.7185515742  MEMB      49              0.0000000000
      5914        49  PMPG      H6S            13.1925658591       33.7076903087        8.8894536944  MEMB      49              0.0000000000
      5915        49  PMPG      C27            14.6794071413       32.8657574717        7.4405143606  MEMB      49              0.0000000000
      5916        49  PMPG      H7R            14.3041046055       31.8225777546        7.3680923421  MEMB      49              0.0000000000
      5917        49  PMPG      H7S            15.7884701184       32.8361477297        7.3820039190  MEMB      49              0.0000000000
      5918        49  PMPG      C28            14.0823336694       33.6819863824        6.2461072431  MEMB      49              0.0000000000
      5919        49  PMPG      H8R            13.8880546883       33.0159343079        5.3783792831  MEMB      49              0.0000000000
      5920        49  PMPG      H8S            14.8086483278       34.4564728489        5.9190615730  MEMB      49              0.0000000000
      5921        49  PMPG      C29            12.7676246525       34.4002184201        6.6057851221  MEMB      49              0.0000000000
      5922        49  PMPG      H9R            12.8779039945       35.3020357580        7.2452269923  MEMB      49              0.0000000000
      5923        49  PMPG      C217           11.6809489721       34.3930515081        5.5940031437  MEMB      49              0.0000000000
      5924        49  PMPG      H17R           11.0034113852       35.2181666041        5.7757080723  MEMB      49              0.0000000000
      5925        49  PMPG      H17S           11.6278779894       33.7243965581        4.7437246081  MEMB      49              0.0000000000
      5926        49  PMPG      C210           11.5659302239       33.5189774347        6.8409725736  MEMB      49              0.0000000000
      5927        49  PMPG      H10R           10.7907066116       33.9342093833        7.5198918481  MEMB      49              0.0000000000
      5928        49  PMPG      C211           11.5824678720       31.9758201304        6.6534973374  MEMB      49              0.0000000000
      5929        49  PMPG      H11R           12.4332886973       31.6930553339        5.9973961105  MEMB      49              0.0000000000
      5930        49  PMPG      H11S           11.6007521253       31.5445448512        7.6772106098  MEMB      49              0.0000000000
      5931        49  PMPG      C212           10.2494949664       31.3473198596        6.1235262053  MEMB      49              0.0000000000
      5932        49  PMPG      H12R            9.4693239658       31.8018068758        6.7709026367  MEMB      49              0.0000000000
      5933        49  PMPG      H12S           10.3709719584       30.2658112995        6.3469180952  MEMB      49              0.0000000000
      5934        49  PMPG      C213           10.0749071109       31.5335832733        4.6066674935  MEMB      49              0.0000000000
      5935        49  PMPG      H13R           11.0232992241       31.3504459783        4.0577285094  MEMB      49              0.0000000000
      5936        49  PMPG      H13S            9.6912546593       32.5613401896        4.4310317815  MEMB      49              0.0000000000
      5937        49  PMPG      C214            8.9664314656       30.6273591184        3.9809855743  MEMB      49              0.0000000000
      5938        49  PMPG      H14R            8.0695879561       30.7898861997        4.6162633651  MEMB      49              0.0000000000
      5939        49  PMPG      H14S            9.2035150226       29.5419914842        3.9904363432  MEMB      49              0.0000000000
      5940        49  PMPG      C215            8.5055232821       31.0424487649        2.5355806872  MEMB      49              0.0000000000
      5941        49  PMPG      H15R            8.0309385886       32.0094545749        2.8075930465  MEMB      49              0.0000000000
      5942        49  PMPG      H15S            7.7178665626       30.3288523780        2.2120109934  MEMB      49              0.0000000000
      5943        49  PMPG      C216            9.6773260461       31.2578664483        1.4960972570  MEMB      49              0.0000000000
      5944        49  PMPG      H16R           10.4522395909       32.0196916668        1.7272949304  MEMB      49              0.0000000000
      5945        49  PMPG      H16S            9.2286435782       31.5523704094        0.5233305226  MEMB      49              0.0000000000
      5946        49  PMPG      H16T           10.1390503280       30.2475560086        1.4759955603  MEMB      49              0.0000000000
      5947        49  PMPG      C33            14.3463522824       28.2649694435       11.9739765723  MEMB      49              0.0000000000
      5948        49  PMPG      H3X            15.0262210599       27.4111280591       12.1814721783  MEMB      49              0.0000000000
      5949        49  PMPG      H3Y            14.8566770566       29.1154477447       11.4734007754  MEMB      49              0.0000000000
      5950        49  PMPG      C34            13.2258048489       27.7227840673       11.0980538375  MEMB      49              0.0000000000
      5951        49  PMPG      H4X            12.3723916355       28.4284613735       11.0084631420  MEMB      49              0.0000000000
      5952        49  PMPG      H4Y            12.7986681668       26.8629346614       11.6571016674  MEMB      49              0.0000000000
      5953        49  PMPG      C35            13.6610165934       27.3475913056        9.7140621208  MEMB      49              0.0000000000
      5954        49  PMPG      H5X            13.1233464782       26.4247897542        9.4080077412  MEMB      49              0.0000000000
      5955        49  PMPG      H5Y            14.7396622544       27.1193178891        9.5771827599  MEMB      49              0.0000000000
      5956        49  PMPG      C36            13.4915611212       28.4338933576        8.6796894000  MEMB      49              0.0000000000
      5957        49  PMPG      H6X            14.0266179495       29.3854794829        8.8858910831  MEMB      49              0.0000000000
      5958        49  PMPG      H6Y            12.4148242757       28.6544224163        8.5174383655  MEMB      49              0.0000000000
      5959        49  PMPG      C37            14.1502049034       27.9210209459        7.3935087211  MEMB      49              0.0000000000
      5960        49  PMPG      H7X            14.1048924227       26.8131054553        7.4627265001  MEMB      49              0.0000000000
      5961        49  PMPG      H7Y            15.2179497305       28.2280075711        7.3924871953  MEMB      49              0.0000000000
      5962        49  PMPG      C38            13.5290913916       28.5833237982        6.1989016724  MEMB      49              0.0000000000
      5963        49  PMPG      H8X            13.8337335579       29.6499998973        6.2598624303  MEMB      49              0.0000000000
      5964        49  PMPG      H8Y            12.4309849603       28.6512298294        6.3534085319  MEMB      49              0.0000000000
      5965        49  PMPG      C39            13.9883328230       28.0636780732        4.8635714471  MEMB      49              0.0000000000
      5966        49  PMPG      H9X            13.2567771963       27.2444127290        4.6963841932  MEMB      49              0.0000000000
      5967        49  PMPG      H9Y            15.0165445132       27.6460839873        4.9156954503  MEMB      49              0.0000000000
      5968        49  PMPG      C310           13.8813872896       29.1729454907        3.7294716901  MEMB      49              0.0000000000
      5969        49  PMPG      H10X           14.7392061171       29.8381010091        3.9661909559  MEMB      49              0.0000000000
      5970        49  PMPG      H10Y           12.9070702938       29.7031513499        3.7919917324  MEMB      49              0.0000000000
      5971        49  PMPG      C311           14.1576857243       28.8424838318        2.2404205438  MEMB      49              0.0000000000
      5972        49  PMPG      H11X           13.5200061123       28.0126064058        1.8676083302  MEMB      49              0.0000000000
      5973        49  PMPG      H11Y           15.2397010090       28.7394901135        2.0102982465  MEMB      49              0.0000000000
      5974        49  PMPG      C312           13.6886885429       29.9950692468        1.2496846223  MEMB      49              0.0000000000
      5975        49  PMPG      H12X           12.6130959229       30.1585663837        1.4748304960  MEMB      49              0.0000000000
      5976        49  PMPG      H12Y           13.9822451206       29.7637532536        0.2034346717  MEMB      49              0.0000000000
      5977        49  PMPG      C313           14.3106333546       31.3347828173        1.5918470452  MEMB      49              0.0000000000
      5978        49  PMPG      H13X           15.3827940284       31.2561956990        1.3114612838  MEMB      49              0.0000000000
      5979        49  PMPG      H13Y           14.2145292554       31.5735045641        2.6726333120  MEMB      49              0.0000000000
      5980        49  PMPG      C314           13.7356928187       32.5974232556        0.7515314633  MEMB      49              0.0000000000
      5981        49  PMPG      H14X           14.5335632261       33.3613690314        0.8703196917  MEMB      49              0.0000000000
      5982        49  PMPG      H14Y           12.7713501897       32.8193220611        1.2566314442  MEMB      49              0.0000000000
      5983        49  PMPG      C315           13.7541976586       32.5299334203       -0.8112812903  MEMB      49              0.0000000000
      5984        49  PMPG      H15X           13.0861665884       31.7306829015       -1.1976149081  MEMB      49              0.0000000000
      5985        49  PMPG      H15Y           14.7657891629       32.2574427751       -1.1810810054  MEMB      49              0.0000000000
      5986        49  PMPG      C316           13.2989427024       33.8021641454       -1.5189628189  MEMB      49              0.0000000000
      5987        49  PMPG      H16X           14.0294348505       34.6130461189       -1.3111819001  MEMB      49              0.0000000000
      5988        49  PMPG      H16Y           12.3406697425       34.1861098166       -1.1083306665  MEMB      49              0.0000000000
      5989        49  PMPG      H16Z           13.0670483697       33.6549429370       -2.5954733126  MEMB      49              0.0000000000
      5990        50  PMPE      N              31.4775767519      -13.0707752110       19.1447817917  MEMB      50              0.0000000000
      5991        50  PMPE      HN1            31.9503560659      -13.5050268274       19.9630148120  MEMB      50              0.0000000000
      5992        50  PMPE      HN2            30.9890164076      -13.8038132350       18.5920033708  MEMB      50              0.0000000000
      5993        50  PMPE      HN3            32.1903197406      -12.5394956517       18.6050228895  MEMB      50              0.0000000000
      5994        50  PMPE      C12            30.3168741050      -12.1883688798       19.5921899044  MEMB      50              0.0000000000
      5995        50  PMPE      H12A           30.0412004171      -11.5347658101       18.7371296463  MEMB      50              0.0000000000
      5996        50  PMPE      H12B           30.6572106570      -11.5730279804       20.4523337556  MEMB      50              0.0000000000
      5997        50  PMPE      C11            29.0624578648      -13.0252582984       19.9036682062  MEMB      50              0.0000000000
      5998        50  PMPE      H11A           28.2159147651      -12.4331096145       20.3123803807  MEMB      50              0.0000000000
      5999        50  PMPE      H11B           29.4114445219      -13.7928520558       20.6270831939  MEMB      50              0.0000000000
      6000        50  PMPE      P              27.3272204207      -14.5987765991       18.7280950519  MEMB      50              0.0000000000
      6001        50  PMPE      O13            26.2373621074      -13.8274115130       19.4285511352  MEMB      50              0.0000000000
      6002        50  PMPE      O14            27.6636035495      -15.9125986163       19.3030967605  MEMB      50              0.0000000000
      6003        50  PMPE      O11            26.9714644575      -14.7889818624       17.1929470161  MEMB      50              0.0000000000
      6004        50  PMPE      O12            28.5901303549      -13.6764202396       18.7066701365  MEMB      50              0.0000000000
      6005        50  PMPE      C1             26.5401404936      -13.9566354419       16.2138423478  MEMB      50              0.0000000000
      6006        50  PMPE      HA             26.5501289322      -12.9624667042       16.7096748020  MEMB      50              0.0000000000
      6007        50  PMPE      HB             25.4830483207      -14.1728943357       15.9490609011  MEMB      50              0.0000000000
      6008        50  PMPE      C2             27.3214086028      -13.8845286512       14.8838685475  MEMB      50              0.0000000000
      6009        50  PMPE      HS             26.8592552882      -13.0665141030       14.2909206208  MEMB      50              0.0000000000
      6010        50  PMPE      O21            27.1690619517      -15.1008973401       14.2403124301  MEMB      50              0.0000000000
      6011        50  PMPE      C21            27.3099784416      -15.1618332989       12.8726940949  MEMB      50              0.0000000000
      6012        50  PMPE      O22            27.7053869641      -14.2783144054       12.1985066176  MEMB      50              0.0000000000
      6013        50  PMPE      C22            27.0749498238      -16.5571003466       12.3697995060  MEMB      50              0.0000000000
      6014        50  PMPE      H2R            26.1084871667      -16.8462851363       12.8352486606  MEMB      50              0.0000000000
      6015        50  PMPE      H2S            27.8183989965      -17.3409630217       12.6289590669  MEMB      50              0.0000000000
      6016        50  PMPE      C3             28.7996103425      -13.6323168976       15.2187812028  MEMB      50              0.0000000000
      6017        50  PMPE      HX             29.2920576964      -14.4116854665       15.8387821463  MEMB      50              0.0000000000
      6018        50  PMPE      HY             28.9122688443      -12.7573744841       15.8941365933  MEMB      50              0.0000000000
      6019        50  PMPE      O31            29.6119275081      -13.2919602618       14.0690928359  MEMB      50              0.0000000000
      6020        50  PMPE      C31            30.3719158147      -14.2457077905       13.6164281779  MEMB      50              0.0000000000
      6021        50  PMPE      O32            30.6238046159      -15.3458636316       14.1582621439  MEMB      50              0.0000000000
      6022        50  PMPE      C32            31.0349456426      -13.9130970274       12.2749610071  MEMB      50              0.0000000000
      6023        50  PMPE      H2X            31.9522155927      -13.2901597785       12.3448622279  MEMB      50              0.0000000000
      6024        50  PMPE      H2Y            30.3071348101      -13.2864199083       11.7164913155  MEMB      50              0.0000000000
      6025        50  PMPE      C23            26.6768067431      -16.6587325981       10.8947301197  MEMB      50              0.0000000000
      6026        50  PMPE      H3R            25.9130666490      -15.8760724626       10.6986045762  MEMB      50              0.0000000000
      6027        50  PMPE      H3S            26.2875559478      -17.6929225802       10.7795966446  MEMB      50              0.0000000000
      6028        50  PMPE      C24            27.8166349609      -16.4413742652        9.8619094972  MEMB      50              0.0000000000
      6029        50  PMPE      H4R            28.4889896214      -15.6963073953       10.3384978215  MEMB      50              0.0000000000
      6030        50  PMPE      H4S            27.4294260052      -15.9803246718        8.9281949068  MEMB      50              0.0000000000
      6031        50  PMPE      C25            28.5655438534      -17.7234535400        9.5292171473  MEMB      50              0.0000000000
      6032        50  PMPE      H5R            27.8297763805      -18.2574601834        8.8906218380  MEMB      50              0.0000000000
      6033        50  PMPE      H5S            28.6805333579      -18.2408769360       10.5056246989  MEMB      50              0.0000000000
      6034        50  PMPE      C26            29.7738948984      -17.6143312652        8.5289817577  MEMB      50              0.0000000000
      6035        50  PMPE      H6R            30.2047736463      -18.6370168937        8.5816938825  MEMB      50              0.0000000000
      6036        50  PMPE      H6S            30.5014407617      -16.8674061788        8.9125188155  MEMB      50              0.0000000000
      6037        50  PMPE      C27            29.3868596865      -17.4419301124        7.0189103013  MEMB      50              0.0000000000
      6038        50  PMPE      H7R            28.6414898549      -16.6203328491        7.0799251915  MEMB      50              0.0000000000
      6039        50  PMPE      H7S            28.8352847446      -18.3561762784        6.7119257324  MEMB      50              0.0000000000
      6040        50  PMPE      C28            30.5161963135      -16.8915441541        6.1753121771  MEMB      50              0.0000000000
      6041        50  PMPE      H8R            30.7357133870      -15.8455612496        6.4787137742  MEMB      50              0.0000000000
      6042        50  PMPE      H8S            30.1629774301      -16.8407351415        5.1231825347  MEMB      50              0.0000000000
      6043        50  PMPE      C29            31.7327915627      -17.7586742631        6.1958680428  MEMB      50              0.0000000000
      6044        50  PMPE      H9R            32.2203672814      -17.8829156541        7.1864004466  MEMB      50              0.0000000000
      6045        50  PMPE      C217           32.9344817743      -17.4615647563        5.1460958323  MEMB      50              0.0000000000
      6046        50  PMPE      H17R           33.9416871545      -17.7086017410        5.4581845465  MEMB      50              0.0000000000
      6047        50  PMPE      H17S           32.6421733781      -16.7601647223        4.3744209795  MEMB      50              0.0000000000
      6048        50  PMPE      C210           32.0791408802      -18.7767253817        5.2023494609  MEMB      50              0.0000000000
      6049        50  PMPE      H10R           32.4430213060      -19.7232863836        5.6561492056  MEMB      50              0.0000000000
      6050        50  PMPE      C211           31.2489752196      -19.0368010408        3.9346121176  MEMB      50              0.0000000000
      6051        50  PMPE      H11R           31.9032480887      -19.5816087095        3.2208670961  MEMB      50              0.0000000000
      6052        50  PMPE      H11S           30.8780855303      -18.1179881996        3.4320740252  MEMB      50              0.0000000000
      6053        50  PMPE      C212           29.9541134481      -19.9483680117        4.0087360739  MEMB      50              0.0000000000
      6054        50  PMPE      H12R           29.1760908955      -19.3354878997        4.5121040958  MEMB      50              0.0000000000
      6055        50  PMPE      H12S           30.2639020657      -20.7945124585        4.6586521093  MEMB      50              0.0000000000
      6056        50  PMPE      C213           29.6289986002      -20.4336915026        2.6001572607  MEMB      50              0.0000000000
      6057        50  PMPE      H13R           28.7517640656      -21.1073482465        2.4954336999  MEMB      50              0.0000000000
      6058        50  PMPE      H13S           30.4012322826      -21.1128476506        2.1797738562  MEMB      50              0.0000000000
      6059        50  PMPE      C214           29.5153627340      -19.2571625402        1.5548837317  MEMB      50              0.0000000000
      6060        50  PMPE      H14R           29.4611073033      -19.8808048460        0.6370330254  MEMB      50              0.0000000000
      6061        50  PMPE      H14S           30.4374415953      -18.6673153549        1.3646946817  MEMB      50              0.0000000000
      6062        50  PMPE      C215           28.2523450452      -18.3580465250        1.6923074507  MEMB      50              0.0000000000
      6063        50  PMPE      H15R           27.9333210805      -18.3874600254        2.7561131870  MEMB      50              0.0000000000
      6064        50  PMPE      H15S           27.5157795481      -18.5949447596        0.8950186284  MEMB      50              0.0000000000
      6065        50  PMPE      C216           28.5925222408      -16.8621267348        1.5718259955  MEMB      50              0.0000000000
      6066        50  PMPE      H16R           27.6877647130      -16.3492781067        1.9626203261  MEMB      50              0.0000000000
      6067        50  PMPE      H16S           29.4023667428      -16.5629282787        2.2710778408  MEMB      50              0.0000000000
      6068        50  PMPE      H16T           28.7966278329      -16.5216783182        0.5341572647  MEMB      50              0.0000000000
      6069        50  PMPE      C33            31.2682016057      -15.1959301454       11.4758335367  MEMB      50              0.0000000000
      6070        50  PMPE      H3X            30.2847760980      -15.5956637252       11.1481023118  MEMB      50              0.0000000000
      6071        50  PMPE      H3Y            31.6473957418      -15.9361474444       12.2124553603  MEMB      50              0.0000000000
      6072        50  PMPE      C34            32.1709222905      -14.9963167252       10.3214210200  MEMB      50              0.0000000000
      6073        50  PMPE      H4X            32.3824724235      -15.8986030613        9.7086843028  MEMB      50              0.0000000000
      6074        50  PMPE      H4Y            33.1386008235      -14.7417355168       10.8042338808  MEMB      50              0.0000000000
      6075        50  PMPE      C35            31.9681433645      -13.6900929478        9.4872937435  MEMB      50              0.0000000000
      6076        50  PMPE      H5X            32.1524538281      -12.8505194078       10.1911873920  MEMB      50              0.0000000000
      6077        50  PMPE      H5Y            30.9039970422      -13.5791521401        9.1879511717  MEMB      50              0.0000000000
      6078        50  PMPE      C36            32.6796570508      -13.4664944107        8.1222771809  MEMB      50              0.0000000000
      6079        50  PMPE      H6X            32.1185338166      -14.2053114047        7.5110404359  MEMB      50              0.0000000000
      6080        50  PMPE      H6Y            33.7743664756      -13.6551448258        8.1037541776  MEMB      50              0.0000000000
      6081        50  PMPE      C37            32.6122328899      -12.0371852009        7.5297343881  MEMB      50              0.0000000000
      6082        50  PMPE      H7X            33.6126803332      -11.5754090697        7.6718219261  MEMB      50              0.0000000000
      6083        50  PMPE      H7Y            31.7982389798      -11.4665813435        8.0258656237  MEMB      50              0.0000000000
      6084        50  PMPE      C38            32.3330326470      -11.8868652868        5.9840257473  MEMB      50              0.0000000000
      6085        50  PMPE      H8X            33.1253237285      -12.3436057626        5.3531657055  MEMB      50              0.0000000000
      6086        50  PMPE      H8Y            32.3102060270      -10.8230810882        5.6643954306  MEMB      50              0.0000000000
      6087        50  PMPE      C39            30.9616328826      -12.4550103043        5.4304505820  MEMB      50              0.0000000000
      6088        50  PMPE      H9X            30.3281625748      -12.6978062541        6.3102732362  MEMB      50              0.0000000000
      6089        50  PMPE      H9Y            31.0733647853      -13.4677879652        4.9875989632  MEMB      50              0.0000000000
      6090        50  PMPE      C310           30.2306572697      -11.5794980451        4.4750282544  MEMB      50              0.0000000000
      6091        50  PMPE      H10X           30.0028962638      -10.6663603656        5.0654726100  MEMB      50              0.0000000000
      6092        50  PMPE      H10Y           29.3001536156      -12.1756218981        4.3604840275  MEMB      50              0.0000000000
      6093        50  PMPE      C311           30.8580529728      -11.2433323276        3.0795083537  MEMB      50              0.0000000000
      6094        50  PMPE      H11X           31.8565588650      -10.7825969646        3.2377160754  MEMB      50              0.0000000000
      6095        50  PMPE      H11Y           30.1925354752      -10.4743924653        2.6321392408  MEMB      50              0.0000000000
      6096        50  PMPE      C312           31.0708712345      -12.4650005840        2.2508742563  MEMB      50              0.0000000000
      6097        50  PMPE      H12X           30.2062605770      -13.1379586997        2.4349830375  MEMB      50              0.0000000000
      6098        50  PMPE      H12Y           31.9740143759      -12.9952127120        2.6217229000  MEMB      50              0.0000000000
      6099        50  PMPE      C313           31.1062852428      -12.1934083055        0.7417305671  MEMB      50              0.0000000000
      6100        50  PMPE      H13X           31.2734976786      -13.1723967315        0.2437919704  MEMB      50              0.0000000000
      6101        50  PMPE      H13Y           31.8473010690      -11.4255737923        0.4324618983  MEMB      50              0.0000000000
      6102        50  PMPE      C314           29.6994079732      -11.6572879736        0.3628640464  MEMB      50              0.0000000000
      6103        50  PMPE      H14X           29.7851695452      -11.2762726652       -0.6772286797  MEMB      50              0.0000000000
      6104        50  PMPE      H14Y           29.3908117258      -10.7292348037        0.8899392184  MEMB      50              0.0000000000
      6105        50  PMPE      C315           28.5257594435      -12.6520484049        0.3954131653  MEMB      50              0.0000000000
      6106        50  PMPE      H15X           27.6667157062      -12.0331736340        0.0587251857  MEMB      50              0.0000000000
      6107        50  PMPE      H15Y           28.3267166134      -12.9849294321        1.4365144005  MEMB      50              0.0000000000
      6108        50  PMPE      C316           28.7225838315      -13.7902323544       -0.5445577330  MEMB      50              0.0000000000
      6109        50  PMPE      H16X           28.8951579055      -13.3781180682       -1.5617600748  MEMB      50              0.0000000000
      6110        50  PMPE      H16Y           27.7777913026      -14.3747000185       -0.5352933177  MEMB      50              0.0000000000
      6111        50  PMPE      H16Z           29.5250680318      -14.5291112235       -0.3338493996  MEMB      50              0.0000000000
      6112        51  PMPE      N             -18.8628867620       24.6946353678       20.4665215172  MEMB      51              0.0000000000
      6113        51  PMPE      HN1           -18.8209266709       25.5042858867       21.1179088667  MEMB      51              0.0000000000
      6114        51  PMPE      HN2           -19.4813661148       24.8105850575       19.6384883036  MEMB      51              0.0000000000
      6115        51  PMPE      HN3           -19.3164216704       23.9144213496       20.9834083300  MEMB      51              0.0000000000
      6116        51  PMPE      C12           -17.4860054445       24.2660693413       20.0867604767  MEMB      51              0.0000000000
      6117        51  PMPE      H12A          -17.6689794666       23.5602627977       19.2485013224  MEMB      51              0.0000000000
      6118        51  PMPE      H12B          -16.8788664735       23.7978233252       20.8907808962  MEMB      51              0.0000000000
      6119        51  PMPE      C11           -16.5378685460       25.3780943805       19.5656224713  MEMB      51              0.0000000000
      6120        51  PMPE      H11A          -15.5962266588       24.9298141366       19.1826389240  MEMB      51              0.0000000000
      6121        51  PMPE      H11B          -16.3349686787       26.1302847905       20.3576845119  MEMB      51              0.0000000000
      6122        51  PMPE      P             -17.6004234183       27.4713894281       18.3822199581  MEMB      51              0.0000000000
      6123        51  PMPE      O13           -18.5604662753       27.6871829815       19.4929730543  MEMB      51              0.0000000000
      6124        51  PMPE      O14           -18.1976334556       27.7838434354       17.1099708593  MEMB      51              0.0000000000
      6125        51  PMPE      O11           -16.3306143786       28.3421082487       18.5930078315  MEMB      51              0.0000000000
      6126        51  PMPE      O12           -17.1531476224       25.8651920008       18.3029238216  MEMB      51              0.0000000000
      6127        51  PMPE      C1            -15.1713492577       28.0763026293       17.8258837694  MEMB      51              0.0000000000
      6128        51  PMPE      HA            -15.2820088784       27.3520608223       16.9906896360  MEMB      51              0.0000000000
      6129        51  PMPE      HB            -14.3748818021       27.6535814066       18.4749347554  MEMB      51              0.0000000000
      6130        51  PMPE      C2            -14.7237754042       29.3411601412       17.0735151539  MEMB      51              0.0000000000
      6131        51  PMPE      HS            -14.0522913304       29.9547344755       17.7114467805  MEMB      51              0.0000000000
      6132        51  PMPE      O21           -15.8517535301       30.0834237673       16.6014459759  MEMB      51              0.0000000000
      6133        51  PMPE      C21           -16.3009043268       31.0596969505       17.4194901670  MEMB      51              0.0000000000
      6134        51  PMPE      O22           -15.8739262615       31.3410985001       18.5314478703  MEMB      51              0.0000000000
      6135        51  PMPE      C22           -17.6276260924       31.7414404395       16.8881698338  MEMB      51              0.0000000000
      6136        51  PMPE      H2R           -17.4557315313       32.8350578412       16.9818416951  MEMB      51              0.0000000000
      6137        51  PMPE      H2S           -18.4658365653       31.5503252536       17.5918738089  MEMB      51              0.0000000000
      6138        51  PMPE      C3            -13.7835445649       29.0043282945       15.8915247277  MEMB      51              0.0000000000
      6139        51  PMPE      HX            -13.1672575959       28.1145292380       16.1420626952  MEMB      51              0.0000000000
      6140        51  PMPE      HY            -13.0987758847       29.8642317517       15.7303436561  MEMB      51              0.0000000000
      6141        51  PMPE      O31           -14.5315731788       28.7745788942       14.6830236990  MEMB      51              0.0000000000
      6142        51  PMPE      C31           -14.0055540724       28.0429673280       13.6720281655  MEMB      51              0.0000000000
      6143        51  PMPE      O32           -12.9633651431       27.4273336202       13.7288928305  MEMB      51              0.0000000000
      6144        51  PMPE      C32           -14.6643696527       28.1471293050       12.2652176384  MEMB      51              0.0000000000
      6145        51  PMPE      H2X           -14.0650327600       28.9824416663       11.8440651990  MEMB      51              0.0000000000
      6146        51  PMPE      H2Y           -15.7575237897       28.3428812918       12.2333357141  MEMB      51              0.0000000000
      6147        51  PMPE      C23           -18.0697977257       31.3150745078       15.4858658161  MEMB      51              0.0000000000
      6148        51  PMPE      H3R           -18.3231016425       30.2335654998       15.4635842369  MEMB      51              0.0000000000
      6149        51  PMPE      H3S           -17.2121583769       31.4867434134       14.8008071387  MEMB      51              0.0000000000
      6150        51  PMPE      C24           -19.3788022121       32.0008958204       15.0245065158  MEMB      51              0.0000000000
      6151        51  PMPE      H4R           -19.2454207196       33.0833168134       14.8126213198  MEMB      51              0.0000000000
      6152        51  PMPE      H4S           -20.0681965103       31.9641892691       15.8949713093  MEMB      51              0.0000000000
      6153        51  PMPE      C25           -20.1565159814       31.2854616108       13.9266666986  MEMB      51              0.0000000000
      6154        51  PMPE      H5R           -21.2097868249       31.6289466733       14.0100893388  MEMB      51              0.0000000000
      6155        51  PMPE      H5S           -20.2866142566       30.2103631970       14.1747773582  MEMB      51              0.0000000000
      6156        51  PMPE      C26           -19.5130629837       31.3674326297       12.5153569788  MEMB      51              0.0000000000
      6157        51  PMPE      H6R           -19.2613387018       32.4348375660       12.3375861131  MEMB      51              0.0000000000
      6158        51  PMPE      H6S           -20.3333623807       31.1509000378       11.7980399514  MEMB      51              0.0000000000
      6159        51  PMPE      C27           -18.2134175508       30.6751179968       12.1185655979  MEMB      51              0.0000000000
      6160        51  PMPE      H7R           -18.2668099078       29.6329440403       12.4998051029  MEMB      51              0.0000000000
      6161        51  PMPE      H7S           -17.3579021808       31.1870681324       12.6087915573  MEMB      51              0.0000000000
      6162        51  PMPE      C28           -18.0103653490       30.4232607051       10.5787735634  MEMB      51              0.0000000000
      6163        51  PMPE      H8R           -17.3833825378       29.5060836305       10.5786836244  MEMB      51              0.0000000000
      6164        51  PMPE      H8S           -17.6111563220       31.3499487384       10.1137984405  MEMB      51              0.0000000000
      6165        51  PMPE      C29           -19.2750122556       30.1938320763        9.7902059475  MEMB      51              0.0000000000
      6166        51  PMPE      H9R           -19.9976959453       31.0369849717        9.7564096359  MEMB      51              0.0000000000
      6167        51  PMPE      C217          -19.9117153753       28.8331631763        9.9324029611  MEMB      51              0.0000000000
      6168        51  PMPE      H17R          -20.9779881268       28.6831886906        9.8163903561  MEMB      51              0.0000000000
      6169        51  PMPE      H17S          -19.3187409023       28.0982294304       10.4626317975  MEMB      51              0.0000000000
      6170        51  PMPE      C210          -19.3157972153       29.3010135142        8.6088078572  MEMB      51              0.0000000000
      6171        51  PMPE      H10R          -20.0339097007       29.4577130739        7.7756927516  MEMB      51              0.0000000000
      6172        51  PMPE      C211          -18.0730883104       28.5115744195        8.1049661156  MEMB      51              0.0000000000
      6173        51  PMPE      H11R          -18.4116085345       27.8443113784        7.2836957414  MEMB      51              0.0000000000
      6174        51  PMPE      H11S          -17.6916395271       27.8985550542        8.9493749934  MEMB      51              0.0000000000
      6175        51  PMPE      C212          -16.8947155353       29.4282573706        7.6118780209  MEMB      51              0.0000000000
      6176        51  PMPE      H12R          -16.0665476455       28.7666974504        7.2790162156  MEMB      51              0.0000000000
      6177        51  PMPE      H12S          -16.6547357467       30.0124192304        8.5259277434  MEMB      51              0.0000000000
      6178        51  PMPE      C213          -17.1637270122       30.4794536513        6.4757130615  MEMB      51              0.0000000000
      6179        51  PMPE      H13R          -16.2146103478       31.0500095867        6.3864684881  MEMB      51              0.0000000000
      6180        51  PMPE      H13S          -18.0079096533       31.1354857486        6.7778697777  MEMB      51              0.0000000000
      6181        51  PMPE      C214          -17.3655028954       29.8924485454        5.0769849876  MEMB      51              0.0000000000
      6182        51  PMPE      H14R          -18.3015097329       29.2960314270        5.0269969347  MEMB      51              0.0000000000
      6183        51  PMPE      H14S          -16.4819388657       29.2891349839        4.7775714700  MEMB      51              0.0000000000
      6184        51  PMPE      C215          -17.4373683014       31.0312103829        4.0881122582  MEMB      51              0.0000000000
      6185        51  PMPE      H15R          -16.7105102060       31.8581878609        4.2367938212  MEMB      51              0.0000000000
      6186        51  PMPE      H15S          -18.4348866497       31.4750542690        4.2937346734  MEMB      51              0.0000000000
      6187        51  PMPE      C216          -17.3521315101       30.5936497893        2.5966874763  MEMB      51              0.0000000000
      6188        51  PMPE      H16R          -16.9000911070       29.6374102019        2.2567076629  MEMB      51              0.0000000000
      6189        51  PMPE      H16S          -18.3909183465       30.6567481099        2.2077636247  MEMB      51              0.0000000000
      6190        51  PMPE      H16T          -16.7729093697       31.3248648997        1.9932418606  MEMB      51              0.0000000000
      6191        51  PMPE      C33           -14.2717731772       26.9206880279       11.4285949911  MEMB      51              0.0000000000
      6192        51  PMPE      H3X           -14.6705312424       26.0368845085       11.9710012389  MEMB      51              0.0000000000
      6193        51  PMPE      H3Y           -13.1865736992       26.7025185778       11.3333866085  MEMB      51              0.0000000000
      6194        51  PMPE      C34           -14.9435766361       27.0436113044       10.0420823376  MEMB      51              0.0000000000
      6195        51  PMPE      H4X           -14.4518935594       27.7632630649        9.3531191113  MEMB      51              0.0000000000
      6196        51  PMPE      H4Y           -16.0151499963       27.3328404987       10.0910510948  MEMB      51              0.0000000000
      6197        51  PMPE      C35           -14.9056489155       25.6183175846        9.3271851298  MEMB      51              0.0000000000
      6198        51  PMPE      H5X           -13.9219728413       25.1553713313        9.5560590110  MEMB      51              0.0000000000
      6199        51  PMPE      H5Y           -14.8856175556       25.7631653395        8.2258502019  MEMB      51              0.0000000000
      6200        51  PMPE      C36           -15.9992054015       24.7359548170        9.8521221197  MEMB      51              0.0000000000
      6201        51  PMPE      H6X           -16.1410530098       24.7072149624       10.9536545302  MEMB      51              0.0000000000
      6202        51  PMPE      H6Y           -15.7394940285       23.7790474652        9.3509243125  MEMB      51              0.0000000000
      6203        51  PMPE      C37           -17.4329921241       24.9823508654        9.2193471616  MEMB      51              0.0000000000
      6204        51  PMPE      H7X           -17.8719783546       25.9462040668        9.5549051852  MEMB      51              0.0000000000
      6205        51  PMPE      H7Y           -18.0490785151       24.1294052636        9.5760581388  MEMB      51              0.0000000000
      6206        51  PMPE      C38           -17.5017095707       24.8929058236        7.7113344247  MEMB      51              0.0000000000
      6207        51  PMPE      H8X           -16.9399264078       23.9779960068        7.4255710355  MEMB      51              0.0000000000
      6208        51  PMPE      H8Y           -17.0979792672       25.8940349484        7.4485359744  MEMB      51              0.0000000000
      6209        51  PMPE      C39           -18.9371528177       24.7843939751        7.1586446544  MEMB      51              0.0000000000
      6210        51  PMPE      H9X           -19.5750943191       25.5416724534        7.6625108116  MEMB      51              0.0000000000
      6211        51  PMPE      H9Y           -19.2447320251       23.7684298544        7.4865666366  MEMB      51              0.0000000000
      6212        51  PMPE      C310          -19.1368529715       24.7788756266        5.6144176116  MEMB      51              0.0000000000
      6213        51  PMPE      H10X          -18.5874436535       25.6579317821        5.2147544299  MEMB      51              0.0000000000
      6214        51  PMPE      H10Y          -20.2108130031       25.0182921415        5.4607611383  MEMB      51              0.0000000000
      6215        51  PMPE      C311          -18.7088308819       23.5727408259        4.8399140945  MEMB      51              0.0000000000
      6216        51  PMPE      H11X          -19.1149176900       22.5902471930        5.1625920461  MEMB      51              0.0000000000
      6217        51  PMPE      H11Y          -17.5994025744       23.5139140025        4.8453127939  MEMB      51              0.0000000000
      6218        51  PMPE      C312          -19.1556815841       23.5876377049        3.3085570808  MEMB      51              0.0000000000
      6219        51  PMPE      H12X          -20.1451962611       24.0914276259        3.2714427983  MEMB      51              0.0000000000
      6220        51  PMPE      H12Y          -19.2433804534       22.5412903347        2.9455328463  MEMB      51              0.0000000000
      6221        51  PMPE      C313          -18.0874271540       24.4167831354        2.5545348750  MEMB      51              0.0000000000
      6222        51  PMPE      H13X          -17.8385176578       23.7048936255        1.7387050469  MEMB      51              0.0000000000
      6223        51  PMPE      H13Y          -17.1879597830       24.5360989687        3.1956623010  MEMB      51              0.0000000000
      6224        51  PMPE      C314          -18.7078408146       25.6442402842        1.9556045346  MEMB      51              0.0000000000
      6225        51  PMPE      H14X          -19.1414637898       26.4011578814        2.6436202738  MEMB      51              0.0000000000
      6226        51  PMPE      H14Y          -19.5931208392       25.3538720894        1.3503882345  MEMB      51              0.0000000000
      6227        51  PMPE      C315          -17.6640998850       26.5167597732        1.1968879432  MEMB      51              0.0000000000
      6228        51  PMPE      H15X          -16.7171404520       26.3741193124        1.7601305811  MEMB      51              0.0000000000
      6229        51  PMPE      H15Y          -17.9401403856       27.5924424402        1.1648016599  MEMB      51              0.0000000000
      6230        51  PMPE      C316          -17.4847573924       26.1266590550       -0.2892315834  MEMB      51              0.0000000000
      6231        51  PMPE      H16X          -16.6518853812       26.7707643484       -0.6438759391  MEMB      51              0.0000000000
      6232        51  PMPE      H16Y          -18.3715047694       26.1322852331       -0.9585350838  MEMB      51              0.0000000000
      6233        51  PMPE      H16Z          -17.1567774798       25.0678506267       -0.3645634387  MEMB      51              0.0000000000
      6234        52  PMPE      N              20.2920022488       27.1026188809       16.2461378709  MEMB      52              0.0000000000
      6235        52  PMPE      HN1            20.1000888820       26.1401584710       15.9019876658  MEMB      52              0.0000000000
      6236        52  PMPE      HN2            19.3377271685       27.5049738130       16.3413733744  MEMB      52              0.0000000000
      6237        52  PMPE      HN3            20.7686023069       27.5552041126       15.4401484203  MEMB      52              0.0000000000
      6238        52  PMPE      C12            21.1295342492       27.0686915050       17.4715614522  MEMB      52              0.0000000000
      6239        52  PMPE      H12A           21.0537813283       27.9970243657       18.0771854696  MEMB      52              0.0000000000
      6240        52  PMPE      H12B           22.1801375982       26.9304949153       17.1377124019  MEMB      52              0.0000000000
      6241        52  PMPE      C11            20.8646869175       25.8961586373       18.4705664732  MEMB      52              0.0000000000
      6242        52  PMPE      H11A           21.5253446458       26.0429161529       19.3516536521  MEMB      52              0.0000000000
      6243        52  PMPE      H11B           21.0697672137       24.9278752028       17.9658979245  MEMB      52              0.0000000000
      6244        52  PMPE      P              18.9582681063       25.0262142869       20.0279376500  MEMB      52              0.0000000000
      6245        52  PMPE      O13            17.4613742499       25.1927410204       20.2105003013  MEMB      52              0.0000000000
      6246        52  PMPE      O14            19.8338874410       25.4251757106       21.1343938411  MEMB      52              0.0000000000
      6247        52  PMPE      O11            19.3146985762       23.5331250322       19.6646226653  MEMB      52              0.0000000000
      6248        52  PMPE      O12            19.5077033848       25.7896333513       18.7742797214  MEMB      52              0.0000000000
      6249        52  PMPE      C1             18.2768555902       22.6741856783       19.1611909545  MEMB      52              0.0000000000
      6250        52  PMPE      HA             17.7234466606       23.1574418992       18.3278104923  MEMB      52              0.0000000000
      6251        52  PMPE      HB             17.4987921159       22.3398856786       19.8803444571  MEMB      52              0.0000000000
      6252        52  PMPE      C2             19.0608329669       21.4205882510       18.5674764565  MEMB      52              0.0000000000
      6253        52  PMPE      HS             19.5519275361       20.8113272229       19.3561133042  MEMB      52              0.0000000000
      6254        52  PMPE      O21            20.0451083697       21.8126605782       17.5580993421  MEMB      52              0.0000000000
      6255        52  PMPE      C21            20.9126524974       20.8462305040       17.2759649066  MEMB      52              0.0000000000
      6256        52  PMPE      O22            21.0967523577       19.8377330556       17.9802369795  MEMB      52              0.0000000000
      6257        52  PMPE      C22            21.6856416835       21.3601395039       16.0267914883  MEMB      52              0.0000000000
      6258        52  PMPE      H2R            22.5003871611       22.0419629383       16.3517952659  MEMB      52              0.0000000000
      6259        52  PMPE      H2S            20.9159104641       21.9354869093       15.4692877212  MEMB      52              0.0000000000
      6260        52  PMPE      C3             17.9607523116       20.4737516277       17.8810559789  MEMB      52              0.0000000000
      6261        52  PMPE      HX             17.3498952395       20.1312273222       18.7435244039  MEMB      52              0.0000000000
      6262        52  PMPE      HY             18.4012584510       19.5774478242       17.3943173143  MEMB      52              0.0000000000
      6263        52  PMPE      O31            17.1963440298       21.2615785074       16.8972880410  MEMB      52              0.0000000000
      6264        52  PMPE      C31            17.1532042261       20.9070268738       15.5575921809  MEMB      52              0.0000000000
      6265        52  PMPE      O32            17.5339883311       19.8652942297       15.1181022722  MEMB      52              0.0000000000
      6266        52  PMPE      C32            16.2401314017       21.9567096285       14.9239018923  MEMB      52              0.0000000000
      6267        52  PMPE      H2X            16.5166037334       22.9753494993       15.2706838475  MEMB      52              0.0000000000
      6268        52  PMPE      H2Y            15.1796383654       21.7054707107       15.1396669530  MEMB      52              0.0000000000
      6269        52  PMPE      C23            22.1773778023       20.1535965592       15.1627875760  MEMB      52              0.0000000000
      6270        52  PMPE      H3R            21.3421258005       19.4338640286       15.0261843356  MEMB      52              0.0000000000
      6271        52  PMPE      H3S            22.8720206519       19.6294622608       15.8534939131  MEMB      52              0.0000000000
      6272        52  PMPE      C24            22.7084761729       20.5851965499       13.8067769737  MEMB      52              0.0000000000
      6273        52  PMPE      H4R            22.9014200710       19.5809043833       13.3726210416  MEMB      52              0.0000000000
      6274        52  PMPE      H4S            23.6749979069       21.1083126922       13.9695839942  MEMB      52              0.0000000000
      6275        52  PMPE      C25            21.7079778506       21.2466508447       12.9635266519  MEMB      52              0.0000000000
      6276        52  PMPE      H5R            21.8615135222       22.3467845528       12.9422331569  MEMB      52              0.0000000000
      6277        52  PMPE      H5S            20.7211491763       20.9859111726       13.4022802877  MEMB      52              0.0000000000
      6278        52  PMPE      C26            21.5364259374       20.8362136158       11.4443179175  MEMB      52              0.0000000000
      6279        52  PMPE      H6R            20.6915834707       21.3621319609       10.9503821706  MEMB      52              0.0000000000
      6280        52  PMPE      H6S            21.0981206378       19.8209784357       11.3370463494  MEMB      52              0.0000000000
      6281        52  PMPE      C27            22.7924514894       20.8865186073       10.6705532118  MEMB      52              0.0000000000
      6282        52  PMPE      H7R            23.3813930463       20.0208047927       11.0420475943  MEMB      52              0.0000000000
      6283        52  PMPE      H7S            23.4303370961       21.7917786024       10.7595899097  MEMB      52              0.0000000000
      6284        52  PMPE      C28            22.6061029985       20.7957044240        9.0961291421  MEMB      52              0.0000000000
      6285        52  PMPE      H8R            22.1621919999       19.8029314023        8.8688280007  MEMB      52              0.0000000000
      6286        52  PMPE      H8S            23.5471423342       20.7205459981        8.5103670361  MEMB      52              0.0000000000
      6287        52  PMPE      C29            21.6941279285       21.9434071194        8.6233597247  MEMB      52              0.0000000000
      6288        52  PMPE      H9R            22.0057204845       22.9729424709        8.9013679673  MEMB      52              0.0000000000
      6289        52  PMPE      C217           20.2052509739       21.5747088504        8.3117900791  MEMB      52              0.0000000000
      6290        52  PMPE      H17R           19.6149512262       22.3836875446        8.7240869618  MEMB      52              0.0000000000
      6291        52  PMPE      H17S           20.0318633812       20.5274465819        8.5264237850  MEMB      52              0.0000000000
      6292        52  PMPE      C210           21.1837375609       21.9014026919        7.1571017124  MEMB      52              0.0000000000
      6293        52  PMPE      H10R           21.3524839649       22.9476909029        6.8237449978  MEMB      52              0.0000000000
      6294        52  PMPE      C211           21.5723125232       20.8319805728        6.1315185994  MEMB      52              0.0000000000
      6295        52  PMPE      H11R           21.5344669680       19.7933419325        6.5240974697  MEMB      52              0.0000000000
      6296        52  PMPE      H11S           22.6738564566       20.9067208848        6.0076803914  MEMB      52              0.0000000000
      6297        52  PMPE      C212           20.8086412405       20.8558462723        4.8606753148  MEMB      52              0.0000000000
      6298        52  PMPE      H12R           20.6453688147       21.8743761487        4.4480499465  MEMB      52              0.0000000000
      6299        52  PMPE      H12S           19.7906039015       20.5451902484        5.1791310587  MEMB      52              0.0000000000
      6300        52  PMPE      C213           21.2797149791       19.8847778772        3.7713468639  MEMB      52              0.0000000000
      6301        52  PMPE      H13R           21.1219263094       18.8867959961        4.2333598967  MEMB      52              0.0000000000
      6302        52  PMPE      H13S           22.3490133329       20.0808170345        3.5422394758  MEMB      52              0.0000000000
      6303        52  PMPE      C214           20.4586178367       19.9966276978        2.5094190629  MEMB      52              0.0000000000
      6304        52  PMPE      H14R           19.3660994948       19.8983307870        2.6856648486  MEMB      52              0.0000000000
      6305        52  PMPE      H14S           20.7262823996       19.1353727335        1.8606390403  MEMB      52              0.0000000000
      6306        52  PMPE      C215           20.6111659316       21.2320611813        1.5775817191  MEMB      52              0.0000000000
      6307        52  PMPE      H15R           20.3904078039       22.1724002829        2.1265348906  MEMB      52              0.0000000000
      6308        52  PMPE      H15S           19.8811173331       21.1742043989        0.7421164482  MEMB      52              0.0000000000
      6309        52  PMPE      C216           21.9942456414       21.3247492796        0.9670129694  MEMB      52              0.0000000000
      6310        52  PMPE      H16R           22.8705131838       21.3207044235        1.6499916004  MEMB      52              0.0000000000
      6311        52  PMPE      H16S           22.0897516892       20.5209836734        0.2059883681  MEMB      52              0.0000000000
      6312        52  PMPE      H16T           22.0197857727       22.2629228598        0.3724550991  MEMB      52              0.0000000000
      6313        52  PMPE      C33            16.1996452775       21.8184772461       13.3057854705  MEMB      52              0.0000000000
      6314        52  PMPE      H3X            15.4320481923       22.4991029743       12.8793296032  MEMB      52              0.0000000000
      6315        52  PMPE      H3Y            16.0097365138       20.7813368878       12.9556495260  MEMB      52              0.0000000000
      6316        52  PMPE      C34            17.5575679063       22.3455756256       12.7357467584  MEMB      52              0.0000000000
      6317        52  PMPE      H4X            17.6763755920       22.0548394826       11.6700648644  MEMB      52              0.0000000000
      6318        52  PMPE      H4Y            18.3260477259       21.8171947591       13.3395460082  MEMB      52              0.0000000000
      6319        52  PMPE      C35            17.7992635703       23.8321091594       12.7425533923  MEMB      52              0.0000000000
      6320        52  PMPE      H5X            17.6682014749       24.1683270375       13.7933156897  MEMB      52              0.0000000000
      6321        52  PMPE      H5Y            17.0510737110       24.4304694203       12.1799717612  MEMB      52              0.0000000000
      6322        52  PMPE      C36            19.2607620172       24.2300244340       12.4890820261  MEMB      52              0.0000000000
      6323        52  PMPE      H6X            19.4734844928       23.8448513597       11.4689292812  MEMB      52              0.0000000000
      6324        52  PMPE      H6Y            19.9250280992       23.6527371355       13.1671754722  MEMB      52              0.0000000000
      6325        52  PMPE      C37            19.4399732952       25.7744953358       12.6513874702  MEMB      52              0.0000000000
      6326        52  PMPE      H7X            18.9989483760       26.0595298561       13.6304550877  MEMB      52              0.0000000000
      6327        52  PMPE      H7Y            18.8768598842       26.2833260724       11.8400210890  MEMB      52              0.0000000000
      6328        52  PMPE      C38            20.8348653538       26.2988513897       12.6280209766  MEMB      52              0.0000000000
      6329        52  PMPE      H8X            21.4711763645       25.9036942272       13.4485573624  MEMB      52              0.0000000000
      6330        52  PMPE      H8Y            20.7894117171       27.4089098669       12.6230315545  MEMB      52              0.0000000000
      6331        52  PMPE      C39            21.7793383073       25.8219637389       11.4050090926  MEMB      52              0.0000000000
      6332        52  PMPE      H9X            21.8738141988       24.7185958608       11.4943100021  MEMB      52              0.0000000000
      6333        52  PMPE      H9Y            22.7617688417       26.3090216803       11.5836868098  MEMB      52              0.0000000000
      6334        52  PMPE      C310           21.2046430264       26.3018399168       10.0212815305  MEMB      52              0.0000000000
      6335        52  PMPE      H10X           20.7992015369       27.3360731855       10.0386059951  MEMB      52              0.0000000000
      6336        52  PMPE      H10Y           20.3038482609       25.7014235734        9.7715018833  MEMB      52              0.0000000000
      6337        52  PMPE      C311           22.2181393977       26.0554205384        8.9151325264  MEMB      52              0.0000000000
      6338        52  PMPE      H11X           22.6657138374       25.0391106008        8.8817838422  MEMB      52              0.0000000000
      6339        52  PMPE      H11Y           23.1396605582       26.6462902187        9.1048504423  MEMB      52              0.0000000000
      6340        52  PMPE      C312           21.6973540116       26.1844492824        7.4946388737  MEMB      52              0.0000000000
      6341        52  PMPE      H12X           21.2471176718       27.1843930935        7.3165364992  MEMB      52              0.0000000000
      6342        52  PMPE      H12Y           20.9452258257       25.3683542716        7.4435189746  MEMB      52              0.0000000000
      6343        52  PMPE      C313           22.7159792293       25.9148321048        6.3493992999  MEMB      52              0.0000000000
      6344        52  PMPE      H13X           23.4348373203       25.1277816795        6.6626333373  MEMB      52              0.0000000000
      6345        52  PMPE      H13Y           23.3055367444       26.8520897560        6.2583452808  MEMB      52              0.0000000000
      6346        52  PMPE      C314           22.0211917146       25.4419421078        5.0528376982  MEMB      52              0.0000000000
      6347        52  PMPE      H14X           21.1080473707       25.9774112743        4.7155523740  MEMB      52              0.0000000000
      6348        52  PMPE      H14Y           21.4659311190       24.4813253476        5.1095987633  MEMB      52              0.0000000000
      6349        52  PMPE      C315           23.0105429476       25.3725237657        3.8367289501  MEMB      52              0.0000000000
      6350        52  PMPE      H15X           23.8103402965       24.6040446457        3.7728141436  MEMB      52              0.0000000000
      6351        52  PMPE      H15Y           23.5296757161       26.3432753021        3.9866077061  MEMB      52              0.0000000000
      6352        52  PMPE      C316           22.3367184334       25.4410207491        2.4797038010  MEMB      52              0.0000000000
      6353        52  PMPE      H16X           22.9663223941       25.9025683372        1.6892017536  MEMB      52              0.0000000000
      6354        52  PMPE      H16Y           21.4302380851       26.0758130568        2.3814545146  MEMB      52              0.0000000000
      6355        52  PMPE      H16Z           22.1189960663       24.3870828472        2.2037831203  MEMB      52              0.0000000000
      6356        53  PMPE      N              24.7772078221       17.7490599580       20.8457794712  MEMB      53              0.0000000000
      6357        53  PMPE      HN1            24.4954955869       17.8325401715       21.8434113608  MEMB      53              0.0000000000
      6358        53  PMPE      HN2            24.5517619018       16.8152200068       20.4473863053  MEMB      53              0.0000000000
      6359        53  PMPE      HN3            25.7795636161       17.9946863754       20.7171305335  MEMB      53              0.0000000000
      6360        53  PMPE      C12            23.9520308548       18.5608951297       19.8934060426  MEMB      53              0.0000000000
      6361        53  PMPE      H12A           23.7243214664       19.5087122504       20.4264276606  MEMB      53              0.0000000000
      6362        53  PMPE      H12B           22.9886712550       18.0184499373       19.7838037259  MEMB      53              0.0000000000
      6363        53  PMPE      C11            24.6920479888       18.8972912233       18.6034029821  MEMB      53              0.0000000000
      6364        53  PMPE      H11A           24.0190179590       19.5475382280       18.0046289178  MEMB      53              0.0000000000
      6365        53  PMPE      H11B           25.0493786995       18.0349552293       18.0008979897  MEMB      53              0.0000000000
      6366        53  PMPE      P              26.1165691260       21.2178747316       18.6056075342  MEMB      53              0.0000000000
      6367        53  PMPE      O13            27.4058433595       21.6265006813       19.2118125793  MEMB      53              0.0000000000
      6368        53  PMPE      O14            24.9835225141       22.1534659058       18.8240648794  MEMB      53              0.0000000000
      6369        53  PMPE      O11            26.3249261346       21.0026917279       17.0001954867  MEMB      53              0.0000000000
      6370        53  PMPE      O12            25.7962594009       19.7312958440       19.0157310210  MEMB      53              0.0000000000
      6371        53  PMPE      C1             27.6212727366       20.4395329851       16.6230431553  MEMB      53              0.0000000000
      6372        53  PMPE      HA             27.7230642060       19.5057563380       17.2163563180  MEMB      53              0.0000000000
      6373        53  PMPE      HB             28.4783009729       21.1378665614       16.7332868349  MEMB      53              0.0000000000
      6374        53  PMPE      C2             27.6977437235       20.0560269091       15.1351086513  MEMB      53              0.0000000000
      6375        53  PMPE      HS             28.7464606457       19.7271569160       14.9727562623  MEMB      53              0.0000000000
      6376        53  PMPE      O21            27.3128690574       21.2014576172       14.3385179615  MEMB      53              0.0000000000
      6377        53  PMPE      C21            27.9564810777       21.3653155620       13.1697819356  MEMB      53              0.0000000000
      6378        53  PMPE      O22            28.7985411052       20.6635697502       12.7038801057  MEMB      53              0.0000000000
      6379        53  PMPE      C22            27.5595687604       22.8182360630       12.6671812456  MEMB      53              0.0000000000
      6380        53  PMPE      H2R            28.2610362291       23.5688859546       13.0900161958  MEMB      53              0.0000000000
      6381        53  PMPE      H2S            26.5603639533       23.2173679741       12.9439564962  MEMB      53              0.0000000000
      6382        53  PMPE      C3             26.7556578597       18.8715604689       14.8869712611  MEMB      53              0.0000000000
      6383        53  PMPE      HX             25.7828471703       19.1325760782       15.3558328455  MEMB      53              0.0000000000
      6384        53  PMPE      HY             27.2847968248       18.0573429898       15.4267705122  MEMB      53              0.0000000000
      6385        53  PMPE      O31            26.4056960382       18.6204265022       13.4912803315  MEMB      53              0.0000000000
      6386        53  PMPE      C31            27.1386769972       17.7074683363       12.8763599477  MEMB      53              0.0000000000
      6387        53  PMPE      O32            28.1264187976       17.1432295647       13.3424625205  MEMB      53              0.0000000000
      6388        53  PMPE      C32            26.6297214794       17.6336180565       11.4008967815  MEMB      53              0.0000000000
      6389        53  PMPE      H2X            26.5265670650       18.6521932308       10.9694051511  MEMB      53              0.0000000000
      6390        53  PMPE      H2Y            25.6757862934       17.0687198042       11.3286560910  MEMB      53              0.0000000000
      6391        53  PMPE      C23            27.5390615964       22.7673526574       11.1441426338  MEMB      53              0.0000000000
      6392        53  PMPE      H3R            28.3988934599       22.1952434886       10.7346290757  MEMB      53              0.0000000000
      6393        53  PMPE      H3S            27.6547668250       23.7936064336       10.7345865717  MEMB      53              0.0000000000
      6394        53  PMPE      C24            26.2997193393       22.0161361878       10.5734354542  MEMB      53              0.0000000000
      6395        53  PMPE      H4R            25.3771466871       22.4617123147       11.0031355558  MEMB      53              0.0000000000
      6396        53  PMPE      H4S            26.2285272875       20.9754269408       10.9557658368  MEMB      53              0.0000000000
      6397        53  PMPE      C25            26.2049727405       22.1606504425        9.0185761748  MEMB      53              0.0000000000
      6398        53  PMPE      H5R            25.4762678718       21.3442024957        8.8269428234  MEMB      53              0.0000000000
      6399        53  PMPE      H5S            27.1563549518       22.1276333712        8.4457739766  MEMB      53              0.0000000000
      6400        53  PMPE      C26            25.6500309861       23.5227488033        8.5613035192  MEMB      53              0.0000000000
      6401        53  PMPE      H6R            26.0856923458       24.3239348924        9.1958284370  MEMB      53              0.0000000000
      6402        53  PMPE      H6S            24.5910073173       23.4328075631        8.8848781714  MEMB      53              0.0000000000
      6403        53  PMPE      C27            25.8215974546       23.8435844392        7.0186576795  MEMB      53              0.0000000000
      6404        53  PMPE      H7R            26.8813713090       23.7089620652        6.7135726607  MEMB      53              0.0000000000
      6405        53  PMPE      H7S            25.6938230111       24.9161442475        6.7586378676  MEMB      53              0.0000000000
      6406        53  PMPE      C28            25.0074105962       23.0475063521        6.0255828031  MEMB      53              0.0000000000
      6407        53  PMPE      H8R            25.2735610056       21.9729225779        6.1191510128  MEMB      53              0.0000000000
      6408        53  PMPE      H8S            25.3700425582       23.3855916902        5.0313411879  MEMB      53              0.0000000000
      6409        53  PMPE      C29            23.5303323997       23.3291335241        6.2370242740  MEMB      53              0.0000000000
      6410        53  PMPE      H9R            23.2362143455       24.4004090517        6.2234575280  MEMB      53              0.0000000000
      6411        53  PMPE      C217           22.7081036653       22.2517556038        7.0101134975  MEMB      53              0.0000000000
      6412        53  PMPE      H17R           21.9608237305       22.7021079342        7.6517087112  MEMB      53              0.0000000000
      6413        53  PMPE      H17S           23.2803963480       21.3944547322        7.3423867252  MEMB      53              0.0000000000
      6414        53  PMPE      C210           22.5549963203       22.4327692061        5.4493627077  MEMB      53              0.0000000000
      6415        53  PMPE      H10R           21.5412300817       22.8577783169        5.2882214110  MEMB      53              0.0000000000
      6416        53  PMPE      C211           23.0138654041       21.2628641813        4.5320152712  MEMB      53              0.0000000000
      6417        53  PMPE      H11R           22.1734839263       20.5589031952        4.3516858344  MEMB      53              0.0000000000
      6418        53  PMPE      H11S           23.8342756599       20.6769698491        4.9988940863  MEMB      53              0.0000000000
      6419        53  PMPE      C212           23.3389295517       21.7214885854        3.1050700818  MEMB      53              0.0000000000
      6420        53  PMPE      H12R           23.7746467483       20.8848094555        2.5181809576  MEMB      53              0.0000000000
      6421        53  PMPE      H12S           24.1883488479       22.4249502062        3.2390463009  MEMB      53              0.0000000000
      6422        53  PMPE      C213           22.2102606864       22.4701634747        2.4353169806  MEMB      53              0.0000000000
      6423        53  PMPE      H13R           21.9496048623       23.3225172961        3.0985454773  MEMB      53              0.0000000000
      6424        53  PMPE      H13S           21.3855366911       21.7387403971        2.2968540115  MEMB      53              0.0000000000
      6425        53  PMPE      C214           22.6135581168       22.9390670152        1.0485922629  MEMB      53              0.0000000000
      6426        53  PMPE      H14R           23.4739797210       23.6382702028        1.1200810425  MEMB      53              0.0000000000
      6427        53  PMPE      H14S           21.7765697077       23.5464117571        0.6425077410  MEMB      53              0.0000000000
      6428        53  PMPE      C215           23.0734804542       21.9594842233        0.0164952902  MEMB      53              0.0000000000
      6429        53  PMPE      H15R           24.0391808430       21.4395974018        0.1938682274  MEMB      53              0.0000000000
      6430        53  PMPE      H15S           23.1712647301       22.6314900546       -0.8628044291  MEMB      53              0.0000000000
      6431        53  PMPE      C216           22.1882137460       20.8435378809       -0.5462525242  MEMB      53              0.0000000000
      6432        53  PMPE      H16R           21.1689851593       21.0742377199       -0.9234432703  MEMB      53              0.0000000000
      6433        53  PMPE      H16S           22.8106880189       20.3433737074       -1.3187050598  MEMB      53              0.0000000000
      6434        53  PMPE      H16T           22.0958109871       20.0866854178        0.2618036388  MEMB      53              0.0000000000
      6435        53  PMPE      C33            27.6334672734       16.7705348545       10.7342104078  MEMB      53              0.0000000000
      6436        53  PMPE      H3X            27.6477463459       15.7412549298       11.1521809597  MEMB      53              0.0000000000
      6437        53  PMPE      H3Y            28.6619996713       17.1854173679       10.7998981958  MEMB      53              0.0000000000
      6438        53  PMPE      C34            27.4749367889       16.7040499986        9.1869646605  MEMB      53              0.0000000000
      6439        53  PMPE      H4X            26.5730848289       17.1765897483        8.7423408724  MEMB      53              0.0000000000
      6440        53  PMPE      H4Y            27.2819970466       15.6236837339        9.0140364731  MEMB      53              0.0000000000
      6441        53  PMPE      C35            28.7077467177       17.1249821007        8.3325625069  MEMB      53              0.0000000000
      6442        53  PMPE      H5X            28.6242546716       16.6410974916        7.3359659452  MEMB      53              0.0000000000
      6443        53  PMPE      H5Y            29.6756036053       16.9576142189        8.8517564783  MEMB      53              0.0000000000
      6444        53  PMPE      C36            28.7822075514       18.6195333278        7.9609174084  MEMB      53              0.0000000000
      6445        53  PMPE      H6X            28.4456992084       19.1462881210        8.8794010160  MEMB      53              0.0000000000
      6446        53  PMPE      H6Y            28.1561335430       18.7720741669        7.0558857694  MEMB      53              0.0000000000
      6447        53  PMPE      C37            30.1410572442       19.0550855793        7.4967951073  MEMB      53              0.0000000000
      6448        53  PMPE      H7X            30.6706117754       18.2409939436        6.9572139891  MEMB      53              0.0000000000
      6449        53  PMPE      H7Y            30.7020756949       19.2495213487        8.4358237239  MEMB      53              0.0000000000
      6450        53  PMPE      C38            30.1223510958       20.4029422116        6.6426412778  MEMB      53              0.0000000000
      6451        53  PMPE      H8X            31.1042447347       20.6829194613        6.2046705055  MEMB      53              0.0000000000
      6452        53  PMPE      H8Y            29.8940169134       21.2676999173        7.3017154821  MEMB      53              0.0000000000
      6453        53  PMPE      C39            29.2085680304       20.3382829817        5.4744581557  MEMB      53              0.0000000000
      6454        53  PMPE      H9X            29.3039395087       21.1895102042        4.7669012532  MEMB      53              0.0000000000
      6455        53  PMPE      H9Y            28.1359413115       20.2826078229        5.7585239200  MEMB      53              0.0000000000
      6456        53  PMPE      C310           29.3481773895       19.1286370949        4.5487971161  MEMB      53              0.0000000000
      6457        53  PMPE      H10X           28.8702470741       18.2697663623        5.0667202606  MEMB      53              0.0000000000
      6458        53  PMPE      H10Y           30.4018473669       18.9331946007        4.2557056895  MEMB      53              0.0000000000
      6459        53  PMPE      C311           28.6211539670       19.2906876860        3.2247482333  MEMB      53              0.0000000000
      6460        53  PMPE      H11X           28.8499008110       18.3159199479        2.7432676818  MEMB      53              0.0000000000
      6461        53  PMPE      H11Y           29.0220153569       20.0635439957        2.5345866996  MEMB      53              0.0000000000
      6462        53  PMPE      C312           27.1125112934       19.6848190700        3.3938307829  MEMB      53              0.0000000000
      6463        53  PMPE      H12X           26.7633360771       19.8201159248        2.3478425474  MEMB      53              0.0000000000
      6464        53  PMPE      H12Y           27.0324982766       20.6749249004        3.8914345105  MEMB      53              0.0000000000
      6465        53  PMPE      C313           26.1336442908       18.6038200508        3.9268005093  MEMB      53              0.0000000000
      6466        53  PMPE      H13X           25.2977873277       19.1754994083        4.3837986175  MEMB      53              0.0000000000
      6467        53  PMPE      H13Y           26.6553403828       18.0735935383        4.7520362431  MEMB      53              0.0000000000
      6468        53  PMPE      C314           25.7959470416       17.5647994115        2.8195187541  MEMB      53              0.0000000000
      6469        53  PMPE      H14X           25.5950235420       16.6342687848        3.3922867812  MEMB      53              0.0000000000
      6470        53  PMPE      H14Y           26.7442865813       17.5161739328        2.2427959070  MEMB      53              0.0000000000
      6471        53  PMPE      C315           24.6963197916       17.7909172359        1.9012664105  MEMB      53              0.0000000000
      6472        53  PMPE      H15X           24.6175620694       16.9635477431        1.1639888964  MEMB      53              0.0000000000
      6473        53  PMPE      H15Y           24.8653744384       18.7361553759        1.3424586720  MEMB      53              0.0000000000
      6474        53  PMPE      C316           23.2935399166       18.0685970010        2.5900428584  MEMB      53              0.0000000000
      6475        53  PMPE      H16X           23.3789511776       18.7890882045        3.4314221117  MEMB      53              0.0000000000
      6476        53  PMPE      H16Y           23.0738406123       17.0419722495        2.9534915468  MEMB      53              0.0000000000
      6477        53  PMPE      H16Z           22.6189396112       18.4746164458        1.8062169703  MEMB      53              0.0000000000
      6478        54  PMPG      C13           -28.4086747094        8.6543225761       19.6388736675  MEMB      54              0.0000000000
      6479        54  PMPG      H13A          -28.1174549792        9.7096158324       19.4494842997  MEMB      54              0.0000000000
      6480        54  PMPG      H13B          -28.2747945635        8.3387192036       20.6956572724  MEMB      54              0.0000000000
      6481        54  PMPG      OC3           -27.6192685621        7.7959187758       18.7907410590  MEMB      54              0.0000000000
      6482        54  PMPG      HO3           -27.7469002265        8.2322014097       17.9451835325  MEMB      54              0.0000000000
      6483        54  PMPG      C12           -29.9736686782        8.5070582022       19.2654277365  MEMB      54              0.0000000000
      6484        54  PMPG      H12A          -30.3859270748        7.6786154240       19.8871226921  MEMB      54              0.0000000000
      6485        54  PMPG      OC2           -30.1196102021        8.1422107357       17.8922459248  MEMB      54              0.0000000000
      6486        54  PMPG      HO2           -31.0881479382        8.2148796820       17.7460586539  MEMB      54              0.0000000000
      6487        54  PMPG      C11           -30.7069110034        9.7870772814       19.5901170817  MEMB      54              0.0000000000
      6488        54  PMPG      H11A          -30.2070520551       10.5935084488       19.0120766556  MEMB      54              0.0000000000
      6489        54  PMPG      H11B          -30.5648530287        9.9045998655       20.6857123316  MEMB      54              0.0000000000
      6490        54  PMPG      P             -32.9857708283       10.8593974004       19.0122413720  MEMB      54              0.0000000000
      6491        54  PMPG      O13           -32.1169965504       12.0343457370       18.7015899437  MEMB      54              0.0000000000
      6492        54  PMPG      O14           -33.8999720704       11.0114883798       20.1768613165  MEMB      54              0.0000000000
      6493        54  PMPG      O11           -33.7952085985       10.4827889581       17.6973605248  MEMB      54              0.0000000000
      6494        54  PMPG      O12           -32.0348657994        9.5825786418       19.2345413704  MEMB      54              0.0000000000
      6495        54  PMPG      C1            -34.5357229461       11.3183589573       16.8446289895  MEMB      54              0.0000000000
      6496        54  PMPG      HA            -34.0828048487       12.3294542489       16.7617271105  MEMB      54              0.0000000000
      6497        54  PMPG      HB            -35.5682245863       11.4819985605       17.2207715142  MEMB      54              0.0000000000
      6498        54  PMPG      C2            -34.5142886914       10.6577613349       15.4556449932  MEMB      54              0.0000000000
      6499        54  PMPG      HS            -35.1689168632        9.7637367548       15.5362870997  MEMB      54              0.0000000000
      6500        54  PMPG      O21           -33.1924268036       10.2404433434       14.9703799332  MEMB      54              0.0000000000
      6501        54  PMPG      C21           -32.7778949342        8.9852247384       15.4401382259  MEMB      54              0.0000000000
      6502        54  PMPG      O22           -33.4753960796        8.3145661817       16.1350533560  MEMB      54              0.0000000000
      6503        54  PMPG      C22           -31.3482819212        8.5718865532       15.1218994105  MEMB      54              0.0000000000
      6504        54  PMPG      H2R           -30.8981905437        8.2332828595       16.0795456073  MEMB      54              0.0000000000
      6505        54  PMPG      H2S           -30.8266666031        9.4981426591       14.7989623058  MEMB      54              0.0000000000
      6506        54  PMPG      C3            -35.0551936798       11.6615343016       14.4367615674  MEMB      54              0.0000000000
      6507        54  PMPG      HX            -34.7216068765       12.6930426668       14.6797248523  MEMB      54              0.0000000000
      6508        54  PMPG      HY            -36.1648794448       11.6669439706       14.4905088938  MEMB      54              0.0000000000
      6509        54  PMPG      O31           -34.6302044231       11.4098534058       13.1127884095  MEMB      54              0.0000000000
      6510        54  PMPG      C31           -35.2763625071       10.3854850342       12.5417975637  MEMB      54              0.0000000000
      6511        54  PMPG      O32           -35.9966963390        9.5541063707       13.0898410386  MEMB      54              0.0000000000
      6512        54  PMPG      C32           -34.9914560291       10.2666333158       11.0479735776  MEMB      54              0.0000000000
      6513        54  PMPG      H2X           -33.8948697978       10.3612335670       10.8967441494  MEMB      54              0.0000000000
      6514        54  PMPG      H2Y           -35.5155755860       11.0290479590       10.4328771375  MEMB      54              0.0000000000
      6515        54  PMPG      C23           -31.3416886012        7.5812147706       13.9392353979  MEMB      54              0.0000000000
      6516        54  PMPG      H3R           -32.0993739332        8.0432083261       13.2708078504  MEMB      54              0.0000000000
      6517        54  PMPG      H3S           -31.7940930694        6.6498907441       14.3420837299  MEMB      54              0.0000000000
      6518        54  PMPG      C24           -29.8770371686        7.4523455614       13.4013516489  MEMB      54              0.0000000000
      6519        54  PMPG      H4R           -29.2685351945        7.0765750824       14.2515530225  MEMB      54              0.0000000000
      6520        54  PMPG      H4S           -29.5290286467        8.4693544447       13.1204524765  MEMB      54              0.0000000000
      6521        54  PMPG      C25           -29.6304831495        6.5495408051       12.1451957408  MEMB      54              0.0000000000
      6522        54  PMPG      H5R           -29.8678273383        5.4900579624       12.3807472893  MEMB      54              0.0000000000
      6523        54  PMPG      H5S           -28.5302175901        6.5517521025       11.9911455543  MEMB      54              0.0000000000
      6524        54  PMPG      C26           -30.2121968336        7.0442293230       10.8452958794  MEMB      54              0.0000000000
      6525        54  PMPG      H6R           -31.2940383985        6.8012356375       10.7753393967  MEMB      54              0.0000000000
      6526        54  PMPG      H6S           -29.8828792983        6.3653228241       10.0298470256  MEMB      54              0.0000000000
      6527        54  PMPG      C27           -29.8323613813        8.4399150090       10.5038253685  MEMB      54              0.0000000000
      6528        54  PMPG      H7R           -28.7406993695        8.5231915548       10.6926640142  MEMB      54              0.0000000000
      6529        54  PMPG      H7S           -30.3508644842        9.0524437927       11.2721250323  MEMB      54              0.0000000000
      6530        54  PMPG      C28           -30.2332266344        8.8500088050        9.0913930850  MEMB      54              0.0000000000
      6531        54  PMPG      H8R           -31.2797984965        8.5304943543        8.8992510547  MEMB      54              0.0000000000
      6532        54  PMPG      H8S           -29.5956533214        8.3117542307        8.3578385314  MEMB      54              0.0000000000
      6533        54  PMPG      C29           -30.1021030563       10.3485762961        8.8961051311  MEMB      54              0.0000000000
      6534        54  PMPG      H9R           -31.0276069941       10.9344803966        9.0817925053  MEMB      54              0.0000000000
      6535        54  PMPG      C217          -28.6917509980       10.9490825353        9.3916277834  MEMB      54              0.0000000000
      6536        54  PMPG      H17R          -28.9832143801       11.8337541524        9.9441623227  MEMB      54              0.0000000000
      6537        54  PMPG      H17S          -27.9201525349       10.2323468959        9.6442425157  MEMB      54              0.0000000000
      6538        54  PMPG      C210          -29.1077166904       11.0390959295        7.9141311422  MEMB      54              0.0000000000
      6539        54  PMPG      H10R          -29.5391224370       11.9965298926        7.5514611032  MEMB      54              0.0000000000
      6540        54  PMPG      C211          -28.3664361148       10.0975246273        6.9595123782  MEMB      54              0.0000000000
      6541        54  PMPG      H11R          -27.8113727860        9.3300752152        7.5402419163  MEMB      54              0.0000000000
      6542        54  PMPG      H11S          -29.0473757446        9.4846399162        6.3310105112  MEMB      54              0.0000000000
      6543        54  PMPG      C212          -27.3289823079       10.9701983725        6.2820944663  MEMB      54              0.0000000000
      6544        54  PMPG      H12R          -26.8014710135       10.2788939941        5.5906100334  MEMB      54              0.0000000000
      6545        54  PMPG      H12S          -26.5332245093       11.2980426568        6.9846673063  MEMB      54              0.0000000000
      6546        54  PMPG      C213          -27.8713746163       12.1478009604        5.3899674566  MEMB      54              0.0000000000
      6547        54  PMPG      H13R          -27.2740864259       13.0564527348        5.6178254683  MEMB      54              0.0000000000
      6548        54  PMPG      H13S          -28.9325600402       12.3611279152        5.6403643354  MEMB      54              0.0000000000
      6549        54  PMPG      C214          -27.7160899581       11.9049864090        3.9076030960  MEMB      54              0.0000000000
      6550        54  PMPG      H14R          -28.4564252330       11.1672710963        3.5307728948  MEMB      54              0.0000000000
      6551        54  PMPG      H14S          -26.7001527249       11.4792662823        3.7628474799  MEMB      54              0.0000000000
      6552        54  PMPG      C215          -27.9812912460       13.1775945102        3.0740985212  MEMB      54              0.0000000000
      6553        54  PMPG      H15R          -27.2951523649       13.9763341960        3.4284278647  MEMB      54              0.0000000000
      6554        54  PMPG      H15S          -28.9960972728       13.5031963765        3.3879032963  MEMB      54              0.0000000000
      6555        54  PMPG      C216          -27.8543466704       12.9988571346        1.5491925574  MEMB      54              0.0000000000
      6556        54  PMPG      H16R          -26.7977508010       12.6679389596        1.4574321890  MEMB      54              0.0000000000
      6557        54  PMPG      H16S          -27.8885912300       13.9050818166        0.9073952369  MEMB      54              0.0000000000
      6558        54  PMPG      H16T          -28.5670121832       12.3102205342        1.0469891047  MEMB      54              0.0000000000
      6559        54  PMPG      C33           -35.3216005114        8.7584155765       10.5953724120  MEMB      54              0.0000000000
      6560        54  PMPG      H3X           -36.4095925154        8.7876348435       10.3723473398  MEMB      54              0.0000000000
      6561        54  PMPG      H3Y           -35.0446506736        8.0129648848       11.3712101080  MEMB      54              0.0000000000
      6562        54  PMPG      C34           -34.5628280183        8.4858898405        9.2658094102  MEMB      54              0.0000000000
      6563        54  PMPG      H4X           -34.8806980311        7.4678207841        8.9546593857  MEMB      54              0.0000000000
      6564        54  PMPG      H4Y           -33.4739466290        8.3470581316        9.4372278902  MEMB      54              0.0000000000
      6565        54  PMPG      C35           -34.7558201189        9.4719927991        8.1217024517  MEMB      54              0.0000000000
      6566        54  PMPG      H5X           -34.0360754838       10.3137656645        8.2094925290  MEMB      54              0.0000000000
      6567        54  PMPG      H5Y           -35.7808220227        9.8944552008        8.1939350908  MEMB      54              0.0000000000
      6568        54  PMPG      C36           -34.6553748437        8.8074538169        6.6900509854  MEMB      54              0.0000000000
      6569        54  PMPG      H6X           -34.7407590851        9.6092550883        5.9257569264  MEMB      54              0.0000000000
      6570        54  PMPG      H6Y           -35.5421519649        8.1707124381        6.4838764941  MEMB      54              0.0000000000
      6571        54  PMPG      C37           -33.2552354321        8.2104116230        6.4656273088  MEMB      54              0.0000000000
      6572        54  PMPG      H7X           -33.0450143581        7.2892126817        7.0500245253  MEMB      54              0.0000000000
      6573        54  PMPG      H7Y           -32.4767862475        8.8782843737        6.8925738874  MEMB      54              0.0000000000
      6574        54  PMPG      C38           -32.9801959668        8.0738512483        4.9626792983  MEMB      54              0.0000000000
      6575        54  PMPG      H8X           -33.4103424029        8.9411275445        4.4175859661  MEMB      54              0.0000000000
      6576        54  PMPG      H8Y           -33.5471564650        7.1935437741        4.5912828892  MEMB      54              0.0000000000
      6577        54  PMPG      C39           -31.5069229907        7.8967293497        4.5160101519  MEMB      54              0.0000000000
      6578        54  PMPG      H9X           -30.9808770254        7.3526760404        5.3293994877  MEMB      54              0.0000000000
      6579        54  PMPG      H9Y           -31.1030874039        8.9305965832        4.5645584296  MEMB      54              0.0000000000
      6580        54  PMPG      C310          -31.3056793170        7.3273358728        3.1124479950  MEMB      54              0.0000000000
      6581        54  PMPG      H10X          -31.7653848100        6.3235860280        2.9880364299  MEMB      54              0.0000000000
      6582        54  PMPG      H10Y          -30.2042823137        7.2723539116        2.9774567219  MEMB      54              0.0000000000
      6583        54  PMPG      C311          -32.0005996015        8.1876044893        2.0300663973  MEMB      54              0.0000000000
      6584        54  PMPG      H11X          -31.8932630987        9.2588954212        2.3041756847  MEMB      54              0.0000000000
      6585        54  PMPG      H11Y          -33.0840734894        7.9476756939        1.9767806650  MEMB      54              0.0000000000
      6586        54  PMPG      C312          -31.3642352880        8.1344774265        0.6397558916  MEMB      54              0.0000000000
      6587        54  PMPG      H12X          -31.4076662488        7.0647371019        0.3429557430  MEMB      54              0.0000000000
      6588        54  PMPG      H12Y          -30.3139258514        8.4925065213        0.5851074467  MEMB      54              0.0000000000
      6589        54  PMPG      C313          -32.0861475404        9.1181783388       -0.3671076307  MEMB      54              0.0000000000
      6590        54  PMPG      H13X          -33.0682375613        8.6684311786       -0.6270084682  MEMB      54              0.0000000000
      6591        54  PMPG      H13Y          -31.5213216440        9.1917942621       -1.3209821154  MEMB      54              0.0000000000
      6592        54  PMPG      C314          -32.3600950689       10.5593011371        0.1103888104  MEMB      54              0.0000000000
      6593        54  PMPG      H14X          -31.4377785447       10.9648139314        0.5785903649  MEMB      54              0.0000000000
      6594        54  PMPG      H14Y          -33.0356164830       10.5029672602        0.9906261694  MEMB      54              0.0000000000
      6595        54  PMPG      C315          -32.9965882345       11.4767500650       -0.9930161766  MEMB      54              0.0000000000
      6596        54  PMPG      H15X          -33.0549952041       12.5276122421       -0.6372094394  MEMB      54              0.0000000000
      6597        54  PMPG      H15Y          -34.0213715941       11.1706617997       -1.2937650739  MEMB      54              0.0000000000
      6598        54  PMPG      C316          -32.2287544103       11.5610359329       -2.2806010592  MEMB      54              0.0000000000
      6599        54  PMPG      H16X          -32.0790190992       10.5863221006       -2.7922975682  MEMB      54              0.0000000000
      6600        54  PMPG      H16Y          -31.2568614941       12.0764929861       -2.1255231926  MEMB      54              0.0000000000
      6601        54  PMPG      H16Z          -32.7573827575       12.1776921726       -3.0386302799  MEMB      54              0.0000000000
      6602        55  PMPG      C13           -26.8731788916      -16.6030919053       20.9581629350  MEMB      55              0.0000000000
      6603        55  PMPG      H13A          -26.7019627396      -17.5703186415       20.4390496649  MEMB      55              0.0000000000
      6604        55  PMPG      H13B          -25.9656065764      -16.0856046617       21.3361051637  MEMB      55              0.0000000000
      6605        55  PMPG      OC3           -27.7100177357      -16.7984878158       22.1124684023  MEMB      55              0.0000000000
      6606        55  PMPG      HO3           -27.9099767333      -17.7335359511       22.1979162267  MEMB      55              0.0000000000
      6607        55  PMPG      C12           -27.5336789595      -15.5427089207       20.0162633646  MEMB      55              0.0000000000
      6608        55  PMPG      H12A          -26.7293719842      -15.1357987490       19.3602958032  MEMB      55              0.0000000000
      6609        55  PMPG      OC2           -28.0629899350      -14.4624645225       20.7862911703  MEMB      55              0.0000000000
      6610        55  PMPG      HO2           -28.5616283438      -13.9400988672       20.1205504555  MEMB      55              0.0000000000
      6611        55  PMPG      C11           -28.6360188967      -16.1507574648       19.1044970340  MEMB      55              0.0000000000
      6612        55  PMPG      H11A          -29.3050519166      -16.8252807976       19.6804605655  MEMB      55              0.0000000000
      6613        55  PMPG      H11B          -27.9945169932      -16.7738495004       18.4452908830  MEMB      55              0.0000000000
      6614        55  PMPG      P             -30.5311586609      -15.8292121862       17.4089828230  MEMB      55              0.0000000000
      6615        55  PMPG      O13           -31.4328347991      -14.7593629769       16.9915595955  MEMB      55              0.0000000000
      6616        55  PMPG      O14           -31.1743688163      -17.0345766886       18.0008507736  MEMB      55              0.0000000000
      6617        55  PMPG      O11           -29.5922925191      -16.3353795657       16.2057441901  MEMB      55              0.0000000000
      6618        55  PMPG      O12           -29.3812487846      -15.1924159531       18.4151796948  MEMB      55              0.0000000000
      6619        55  PMPG      C1            -29.7446081033      -15.6457073546       14.9669727370  MEMB      55              0.0000000000
      6620        55  PMPG      HA            -28.8135994957      -15.8268795685       14.3884223296  MEMB      55              0.0000000000
      6621        55  PMPG      HB            -29.9725543980      -14.5587330199       14.9378484571  MEMB      55              0.0000000000
      6622        55  PMPG      C2            -30.8367664931      -16.3755576422       14.1489135919  MEMB      55              0.0000000000
      6623        55  PMPG      HS            -31.6561415303      -16.7590282598       14.7938136077  MEMB      55              0.0000000000
      6624        55  PMPG      O21           -30.1922969613      -17.4795896677       13.5280946228  MEMB      55              0.0000000000
      6625        55  PMPG      C21           -31.0343415123      -18.2770367681       12.8234347355  MEMB      55              0.0000000000
      6626        55  PMPG      O22           -32.2449378820      -18.2523958731       12.8340270392  MEMB      55              0.0000000000
      6627        55  PMPG      C22           -30.1928553248      -19.3943303464       12.0441280301  MEMB      55              0.0000000000
      6628        55  PMPG      H2R           -30.7138909188      -20.3158546920       12.3812271143  MEMB      55              0.0000000000
      6629        55  PMPG      H2S           -29.1269784373      -19.3642441375       12.3560928031  MEMB      55              0.0000000000
      6630        55  PMPG      C3            -31.5387176710      -15.3586176995       13.0712325111  MEMB      55              0.0000000000
      6631        55  PMPG      HX            -32.2756898739      -14.6665735889       13.5319581731  MEMB      55              0.0000000000
      6632        55  PMPG      HY            -32.2618635529      -15.8985523020       12.4232730425  MEMB      55              0.0000000000
      6633        55  PMPG      O31           -30.6042937169      -14.6351271924       12.2215459985  MEMB      55              0.0000000000
      6634        55  PMPG      C31           -31.1469238401      -14.1044019386       11.0950957225  MEMB      55              0.0000000000
      6635        55  PMPG      O32           -32.3180971805      -14.0347322946       10.8791680525  MEMB      55              0.0000000000
      6636        55  PMPG      C32           -30.0550251436      -13.6324956957       10.1341470275  MEMB      55              0.0000000000
      6637        55  PMPG      H2X           -30.2319853281      -14.1347470473        9.1590830273  MEMB      55              0.0000000000
      6638        55  PMPG      H2Y           -29.0692712726      -13.7872969189       10.6226618688  MEMB      55              0.0000000000
      6639        55  PMPG      C23           -30.4063731361      -19.1475376748       10.5182719865  MEMB      55              0.0000000000
      6640        55  PMPG      H3R           -31.4347171233      -19.1890281247       10.0998128519  MEMB      55              0.0000000000
      6641        55  PMPG      H3S           -29.7815596956      -19.9570960741       10.0840556428  MEMB      55              0.0000000000
      6642        55  PMPG      C24           -29.7383584027      -17.7729120147       10.0508886529  MEMB      55              0.0000000000
      6643        55  PMPG      H4R           -28.6424211551      -17.8410106672       10.2200189114  MEMB      55              0.0000000000
      6644        55  PMPG      H4S           -30.1133083273      -16.9796023793       10.7323532547  MEMB      55              0.0000000000
      6645        55  PMPG      C25           -29.9282776404      -17.3539982520        8.5848424231  MEMB      55              0.0000000000
      6646        55  PMPG      H5R           -29.4611932803      -16.3682163613        8.3741590448  MEMB      55              0.0000000000
      6647        55  PMPG      H5S           -31.0206451367      -17.2250822553        8.4285250501  MEMB      55              0.0000000000
      6648        55  PMPG      C26           -29.4742447816      -18.4319385818        7.5433205045  MEMB      55              0.0000000000
      6649        55  PMPG      H6R           -29.7979894958      -18.1049576814        6.5320869434  MEMB      55              0.0000000000
      6650        55  PMPG      H6S           -30.0239619797      -19.3575322254        7.8179265873  MEMB      55              0.0000000000
      6651        55  PMPG      C27           -28.0011661985      -18.9299522717        7.5726255963  MEMB      55              0.0000000000
      6652        55  PMPG      H7R           -27.9154459923      -19.7800952473        6.8625344122  MEMB      55              0.0000000000
      6653        55  PMPG      H7S           -27.8600705436      -19.3677697518        8.5839268383  MEMB      55              0.0000000000
      6654        55  PMPG      C28           -26.9679079682      -17.8845463758        7.1356730661  MEMB      55              0.0000000000
      6655        55  PMPG      H8R           -26.0664199863      -18.4083141223        6.7518648013  MEMB      55              0.0000000000
      6656        55  PMPG      H8S           -26.6030490772      -17.2857321495        7.9974271509  MEMB      55              0.0000000000
      6657        55  PMPG      C29           -27.3838105096      -16.8705261264        6.0507454698  MEMB      55              0.0000000000
      6658        55  PMPG      H9R           -27.8598099741      -15.9097194917        6.3415995202  MEMB      55              0.0000000000
      6659        55  PMPG      C217          -26.5205368574      -16.7254094102        4.8885967361  MEMB      55              0.0000000000
      6660        55  PMPG      H17R          -26.4420561059      -15.7512740753        4.4219168225  MEMB      55              0.0000000000
      6661        55  PMPG      H17S          -25.8124232184      -17.5212989601        4.6935999178  MEMB      55              0.0000000000
      6662        55  PMPG      C210          -27.9278535000      -17.2470643211        4.7200090047  MEMB      55              0.0000000000
      6663        55  PMPG      H10R          -28.5023593452      -16.5096310934        4.1196283410  MEMB      55              0.0000000000
      6664        55  PMPG      C211          -27.9127734004      -18.7096057512        4.2360423552  MEMB      55              0.0000000000
      6665        55  PMPG      H11R          -27.1467173995      -19.3293591977        4.7492534009  MEMB      55              0.0000000000
      6666        55  PMPG      H11S          -28.9114617861      -19.1961156304        4.2518707348  MEMB      55              0.0000000000
      6667        55  PMPG      C212          -27.5068264610      -18.7625778895        2.7521640261  MEMB      55              0.0000000000
      6668        55  PMPG      H12R          -26.4076608520      -18.6105803047        2.6969147275  MEMB      55              0.0000000000
      6669        55  PMPG      H12S          -28.0329171275      -17.8579297399        2.3791204667  MEMB      55              0.0000000000
      6670        55  PMPG      C213          -27.8348521841      -20.0567765214        1.9846656631  MEMB      55              0.0000000000
      6671        55  PMPG      H13R          -27.6252689445      -20.9391420028        2.6264029541  MEMB      55              0.0000000000
      6672        55  PMPG      H13S          -27.2454007285      -20.1999700968        1.0538779433  MEMB      55              0.0000000000
      6673        55  PMPG      C214          -29.3416179462      -20.2480060321        1.7468908257  MEMB      55              0.0000000000
      6674        55  PMPG      H14R          -29.8235355673      -20.5281254073        2.7079361128  MEMB      55              0.0000000000
      6675        55  PMPG      H14S          -29.4875008658      -21.1264306284        1.0825040390  MEMB      55              0.0000000000
      6676        55  PMPG      C215          -30.0159073681      -19.1724250414        0.8871095262  MEMB      55              0.0000000000
      6677        55  PMPG      H15R          -29.9018917646      -18.1773670434        1.3679229638  MEMB      55              0.0000000000
      6678        55  PMPG      H15S          -31.1048933010      -19.3794925632        0.8125856351  MEMB      55              0.0000000000
      6679        55  PMPG      C216          -29.5600883611      -19.0909665100       -0.5853442708  MEMB      55              0.0000000000
      6680        55  PMPG      H16R          -28.4517130393      -19.1404106717       -0.6434897935  MEMB      55              0.0000000000
      6681        55  PMPG      H16S          -29.8971642432      -18.1481113070       -1.0667218871  MEMB      55              0.0000000000
      6682        55  PMPG      H16T          -30.0009405745      -19.9476707762       -1.1385415391  MEMB      55              0.0000000000
      6683        55  PMPG      C33           -30.3687294541      -12.1544148809        9.8696185036  MEMB      55              0.0000000000
      6684        55  PMPG      H3X           -30.3414927730      -11.5205384347       10.7816388570  MEMB      55              0.0000000000
      6685        55  PMPG      H3Y           -31.3326470888      -12.0690884435        9.3238135036  MEMB      55              0.0000000000
      6686        55  PMPG      C34           -29.2474600992      -11.5049052404        9.0266037889  MEMB      55              0.0000000000
      6687        55  PMPG      H4X           -28.3643632999      -11.1800241788        9.6172928567  MEMB      55              0.0000000000
      6688        55  PMPG      H4Y           -29.6308048544      -10.5663271526        8.5722487807  MEMB      55              0.0000000000
      6689        55  PMPG      C35           -28.9338057983      -12.3316325662        7.7984510933  MEMB      55              0.0000000000
      6690        55  PMPG      H5X           -29.9082791834      -12.6396019085        7.3627019456  MEMB      55              0.0000000000
      6691        55  PMPG      H5Y           -28.3678233680      -13.2632587633        8.0130612229  MEMB      55              0.0000000000
      6692        55  PMPG      C36           -28.1994056164      -11.5964156202        6.6501462582  MEMB      55              0.0000000000
      6693        55  PMPG      H6X           -27.1392037303      -11.6318752811        6.9803510385  MEMB      55              0.0000000000
      6694        55  PMPG      H6Y           -28.4308773909      -10.5104263036        6.6131504735  MEMB      55              0.0000000000
      6695        55  PMPG      C37           -28.1991431710      -12.2824581271        5.3611218057  MEMB      55              0.0000000000
      6696        55  PMPG      H7X           -28.1242981092      -13.3862229299        5.4632114519  MEMB      55              0.0000000000
      6697        55  PMPG      H7Y           -27.2882766243      -12.0677281358        4.7623441467  MEMB      55              0.0000000000
      6698        55  PMPG      C38           -29.5013942545      -11.8382929425        4.5576076872  MEMB      55              0.0000000000
      6699        55  PMPG      H8X           -29.8170546546      -10.7814864436        4.6911712769  MEMB      55              0.0000000000
      6700        55  PMPG      H8Y           -30.2997404985      -12.4867895919        4.9776275283  MEMB      55              0.0000000000
      6701        55  PMPG      C39           -29.4467405617      -12.2130034133        3.0243984075  MEMB      55              0.0000000000
      6702        55  PMPG      H9X           -28.7064287800      -11.6246176356        2.4412511750  MEMB      55              0.0000000000
      6703        55  PMPG      H9Y           -30.4223910141      -12.0356325772        2.5234316598  MEMB      55              0.0000000000
      6704        55  PMPG      C310          -29.1355462897      -13.6469150278        2.6541518711  MEMB      55              0.0000000000
      6705        55  PMPG      H10X          -29.3755952743      -14.3541301788        3.4766750224  MEMB      55              0.0000000000
      6706        55  PMPG      H10Y          -28.0267435263      -13.7067815011        2.6181915985  MEMB      55              0.0000000000
      6707        55  PMPG      C311          -29.5827782406      -14.0566368708        1.2441022824  MEMB      55              0.0000000000
      6708        55  PMPG      H11X          -29.4420819984      -13.1540445078        0.6117633076  MEMB      55              0.0000000000
      6709        55  PMPG      H11Y          -30.6842459476      -14.1910677959        1.1891647585  MEMB      55              0.0000000000
      6710        55  PMPG      C312          -28.8758172699      -15.2998944188        0.6237676909  MEMB      55              0.0000000000
      6711        55  PMPG      H12X          -29.3517632786      -15.6456833159       -0.3186900310  MEMB      55              0.0000000000
      6712        55  PMPG      H12Y          -28.9708684621      -16.1156310374        1.3720058857  MEMB      55              0.0000000000
      6713        55  PMPG      C313          -27.3424283585      -15.0845964978        0.4257603763  MEMB      55              0.0000000000
      6714        55  PMPG      H13X          -26.9196721536      -15.0136135358        1.4507289412  MEMB      55              0.0000000000
      6715        55  PMPG      H13Y          -27.0859954947      -14.2268106906       -0.2320896507  MEMB      55              0.0000000000
      6716        55  PMPG      C314          -26.9058632017      -16.3429173600       -0.3525209436  MEMB      55              0.0000000000
      6717        55  PMPG      H14X          -27.3532801689      -16.1743427332       -1.3553776179  MEMB      55              0.0000000000
      6718        55  PMPG      H14Y          -27.5216408549      -17.1626052041        0.0755555059  MEMB      55              0.0000000000
      6719        55  PMPG      C315          -25.3993612969      -16.5997297118       -0.2774969372  MEMB      55              0.0000000000
      6720        55  PMPG      H15X          -25.1970900956      -16.8937684108        0.7746194053  MEMB      55              0.0000000000
      6721        55  PMPG      H15Y          -24.8086547934      -15.6706419844       -0.4264367682  MEMB      55              0.0000000000
      6722        55  PMPG      C316          -24.9123598974      -17.6083974732       -1.3629554341  MEMB      55              0.0000000000
      6723        55  PMPG      H16X          -25.4064929707      -18.6034531868       -1.3587678760  MEMB      55              0.0000000000
      6724        55  PMPG      H16Y          -23.8352952171      -17.6687005222       -1.0972183600  MEMB      55              0.0000000000
      6725        55  PMPG      H16Z          -24.9517483530      -17.1048186691       -2.3524891967  MEMB      55              0.0000000000
      6726        56  QMPE      N               2.6521685459       30.8659779210       18.9401529239  MEMB      56              0.0000000000
      6727        56  QMPE      HN1             1.7116824369       30.4270176634       19.0064828765  MEMB      56              0.0000000000
      6728        56  QMPE      HN2             3.2454561702       30.2062968064       18.3975383929  MEMB      56              0.0000000000
      6729        56  QMPE      HN3             2.9947573166       31.0422877190       19.9061486622  MEMB      56              0.0000000000
      6730        56  QMPE      C12             2.3448015243       32.2155933289       18.3180169598  MEMB      56              0.0000000000
      6731        56  QMPE      H12A            1.2726557808       32.1457045324       18.0352798145  MEMB      56              0.0000000000
      6732        56  QMPE      H12B            3.0378543000       32.1379970299       17.4531599988  MEMB      56              0.0000000000
      6733        56  QMPE      C11             2.6418892126       33.4651659916       19.1501321892  MEMB      56              0.0000000000
      6734        56  QMPE      H11A            1.9402816371       33.6121378658       19.9989355749  MEMB      56              0.0000000000
      6735        56  QMPE      H11B            2.3750427789       34.3426384979       18.5231106230  MEMB      56              0.0000000000
      6736        56  QMPE      P               5.0323037653       34.5750742732       19.1681384502  MEMB      56              0.0000000000
      6737        56  QMPE      O13             6.4237047128       34.0505691319       19.3976229548  MEMB      56              0.0000000000
      6738        56  QMPE      O14             4.7495260779       35.8841045381       19.7253266452  MEMB      56              0.0000000000
      6739        56  QMPE      O11             4.7749890459       34.5229307116       17.6166818093  MEMB      56              0.0000000000
      6740        56  QMPE      O12             3.9760638335       33.5220827972       19.6839280685  MEMB      56              0.0000000000
      6741        56  QMPE      C1              5.4191627151       35.4624171590       16.8003644801  MEMB      56              0.0000000000
      6742        56  QMPE      HA              6.4691813567       35.1493900007       16.6165277294  MEMB      56              0.0000000000
      6743        56  QMPE      HB              5.5520248233       36.4635646482       17.2633681913  MEMB      56              0.0000000000
      6744        56  QMPE      C2              4.6785953389       35.8275750457       15.4608623555  MEMB      56              0.0000000000
      6745        56  QMPE      HS              3.9196303783       36.6093295185       15.6780094131  MEMB      56              0.0000000000
      6746        56  QMPE      O21             4.0064693299       34.6807389804       14.8837495114  MEMB      56              0.0000000000
      6747        56  QMPE      C21             2.7399568405       34.4046088778       15.2471772624  MEMB      56              0.0000000000
      6748        56  QMPE      O22             1.9712712440       35.0316387676       15.9760837249  MEMB      56              0.0000000000
      6749        56  QMPE      C22             2.2943819939       33.0273011573       14.7847345494  MEMB      56              0.0000000000
      6750        56  QMPE      H2R             1.4277618320       32.6976150889       15.3967784022  MEMB      56              0.0000000000
      6751        56  QMPE      H2S             3.1533097199       32.3230342684       14.8086599243  MEMB      56              0.0000000000
      6752        56  QMPE      C3              5.6240661600       36.3159623515       14.4017269761  MEMB      56              0.0000000000
      6753        56  QMPE      HX              6.4459426733       35.5686086110       14.3843414261  MEMB      56              0.0000000000
      6754        56  QMPE      HY              6.0568668872       37.3175675522       14.6109911569  MEMB      56              0.0000000000
      6755        56  QMPE      O31             4.9681272179       36.4446304614       13.1089326734  MEMB      56              0.0000000000
      6756        56  QMPE      C31             5.2186834720       35.4899953067       12.2177324047  MEMB      56              0.0000000000
      6757        56  QMPE      O32             6.0383364797       34.6240962012       12.3127854269  MEMB      56              0.0000000000
      6758        56  QMPE      C32             4.3470822855       35.7253184470       10.9176739340  MEMB      56              0.0000000000
      6759        56  QMPE      H2X             3.3877101599       35.1680340595       10.9756419616  MEMB      56              0.0000000000
      6760        56  QMPE      H2Y             3.8874583730       36.7367781594       10.9136930696  MEMB      56              0.0000000000
      6761        56  QMPE      C23             1.7688275102       33.2498553208       13.3592973967  MEMB      56              0.0000000000
      6762        56  QMPE      H3R             1.3685121748       32.3203371269       12.9009690256  MEMB      56              0.0000000000
      6763        56  QMPE      H3S             2.6508019553       33.5960969863       12.7791602530  MEMB      56              0.0000000000
      6764        56  QMPE      C24             0.5671907369       34.2199697474       13.1606482292  MEMB      56              0.0000000000
      6765        56  QMPE      H4R             0.8636513111       35.2629014176       13.4029823393  MEMB      56              0.0000000000
      6766        56  QMPE      H4S            -0.2570521314       33.9211373033       13.8430293964  MEMB      56              0.0000000000
      6767        56  QMPE      C25            -0.1200179546       34.1728626249       11.8337001903  MEMB      56              0.0000000000
      6768        56  QMPE      H5R            -1.1084696625       34.6800935188       11.8326049895  MEMB      56              0.0000000000
      6769        56  QMPE      H5S            -0.2574721559       33.1168975935       11.5168956812  MEMB      56              0.0000000000
      6770        56  QMPE      C26             0.5777739992       34.8448834253       10.5905646653  MEMB      56              0.0000000000
      6771        56  QMPE      H6R             1.3830446252       34.1880731965       10.1975494909  MEMB      56              0.0000000000
      6772        56  QMPE      H6S             0.9610621580       35.8401927651       10.9016447017  MEMB      56              0.0000000000
      6773        56  QMPE      C27            -0.3668312416       35.0704434471        9.3687059358  MEMB      56              0.0000000000
      6774        56  QMPE      H7R             0.1000101537       35.4396426396        8.4305842282  MEMB      56              0.0000000000
      6775        56  QMPE      H7S            -1.1788476920       35.8078836603        9.5451487130  MEMB      56              0.0000000000
      6776        56  QMPE      C28            -0.9674957009       33.7638393096        8.9154272587  MEMB      56              0.0000000000
      6777        56  QMPE      H8R            -1.7064701168       33.5856777908        9.7256718951  MEMB      56              0.0000000000
      6778        56  QMPE      H8S            -0.1883419748       32.9764084022        9.0002382419  MEMB      56              0.0000000000
      6779        56  QMPE      C29            -1.6686128816       33.8125375224        7.5114534821  MEMB      56              0.0000000000
      6780        56  QMPE      H9R            -2.7702053259       33.9523599278        7.5470186384  MEMB      56              0.0000000000
      6781        56  QMPE      C217           -1.4584611659       32.4208878706        6.9361285205  MEMB      56              0.0000000000
      6782        56  QMPE      H17R           -0.5887924655       31.8439006690        7.2253533219  MEMB      56              0.0000000000
      6783        56  QMPE      H17S           -2.4181244000       32.0250857936        6.6274589802  MEMB      56              0.0000000000
      6784        56  QMPE      C210           -0.9738856295       33.5934373655        6.1515389500  MEMB      56              0.0000000000
      6785        56  QMPE      H10R           -1.5877471779       33.9142324972        5.2828701988  MEMB      56              0.0000000000
      6786        56  QMPE      C211            0.5823737182       33.6733820164        6.0356262218  MEMB      56              0.0000000000
      6787        56  QMPE      H11R            1.1105719596       33.3789429095        6.9676318071  MEMB      56              0.0000000000
      6788        56  QMPE      H11S            0.9865637472       32.9500263206        5.2955533725  MEMB      56              0.0000000000
      6789        56  QMPE      C212            1.0449528630       35.0371110285        5.5654278753  MEMB      56              0.0000000000
      6790        56  QMPE      H12R            2.0064577163       34.7948472817        5.0642914168  MEMB      56              0.0000000000
      6791        56  QMPE      H12S            1.3122015974       35.7297526849        6.3919545380  MEMB      56              0.0000000000
      6792        56  QMPE      C213            0.0785468255       35.7542649684        4.6166329941  MEMB      56              0.0000000000
      6793        56  QMPE      H13R           -0.7951003829       36.0395585407        5.2408676994  MEMB      56              0.0000000000
      6794        56  QMPE      H13S           -0.4422770875       35.0140787863        3.9722832995  MEMB      56              0.0000000000
      6795        56  QMPE      C214            0.6541031113       37.0200839987        4.0100301751  MEMB      56              0.0000000000
      6796        56  QMPE      H14R            1.4415195743       37.4975246055        4.6315979257  MEMB      56              0.0000000000
      6797        56  QMPE      H14S           -0.1533035719       37.7800222012        4.0800951458  MEMB      56              0.0000000000
      6798        56  QMPE      C215            0.9906679577       36.9960797642        2.5060832859  MEMB      56              0.0000000000
      6799        56  QMPE      H15R            1.6400393859       36.1031059368        2.3826517322  MEMB      56              0.0000000000
      6800        56  QMPE      H15S            1.4781183764       37.9017073720        2.0859023878  MEMB      56              0.0000000000
      6801        56  QMPE      C216           -0.2615954906       36.6794746804        1.6386259017  MEMB      56              0.0000000000
      6802        56  QMPE      H16R           -0.0615160033       36.6727506594        0.5458110745  MEMB      56              0.0000000000
      6803        56  QMPE      H16S           -1.0792593652       37.3864522367        1.8953931925  MEMB      56              0.0000000000
      6804        56  QMPE      H16T           -0.7434319966       35.7282005406        1.9504467828  MEMB      56              0.0000000000
      6805        56  QMPE      C33             5.1294221882       35.5463813690        9.5927433279  MEMB      56              0.0000000000
      6806        56  QMPE      H3X             6.1750407363       35.2741481027        9.8513772517  MEMB      56              0.0000000000
      6807        56  QMPE      H3Y             5.2584855662       36.5817407801        9.2110430922  MEMB      56              0.0000000000
      6808        56  QMPE      C34             4.6357535012       34.5858331374        8.5555360699  MEMB      56              0.0000000000
      6809        56  QMPE      H4X             3.5824499238       34.7682370773        8.2528788698  MEMB      56              0.0000000000
      6810        56  QMPE      H4Y             4.6765253615       33.5598228905        8.9797549635  MEMB      56              0.0000000000
      6811        56  QMPE      C35             5.4605208039       34.5139775110        7.2384631056  MEMB      56              0.0000000000
      6812        56  QMPE      H5X             6.5094902200       34.3275519427        7.5534706762  MEMB      56              0.0000000000
      6813        56  QMPE      H5Y             5.4874798069       35.5061432182        6.7392623742  MEMB      56              0.0000000000
      6814        56  QMPE      C36             4.9646936210       33.3638044929        6.3792940175  MEMB      56              0.0000000000
      6815        56  QMPE      H6X             3.8912978675       33.5992964645        6.2159339694  MEMB      56              0.0000000000
      6816        56  QMPE      H6Y             5.0654105244       32.4999880792        7.0706679453  MEMB      56              0.0000000000
      6817        56  QMPE      C37             5.6405471527       33.2515381911        5.0275162564  MEMB      56              0.0000000000
      6818        56  QMPE      H7X             5.0330118294       33.9521911467        4.4157090318  MEMB      56              0.0000000000
      6819        56  QMPE      H7Y             6.6706149438       33.6633316120        5.0884058148  MEMB      56              0.0000000000
      6820        56  QMPE      C38             5.5970598535       31.7824304918        4.4704624823  MEMB      56              0.0000000000
      6821        56  QMPE      H8X             6.0865393712       31.0997233163        5.1975406295  MEMB      56              0.0000000000
      6822        56  QMPE      H8Y             4.5183766102       31.5164398216        4.4739681608  MEMB      56              0.0000000000
      6823        56  QMPE      C39             6.2052960103       31.5420766038        3.0320702020  MEMB      56              0.0000000000
      6824        56  QMPE      H9X             5.9577788903       30.5068245549        2.7137785913  MEMB      56              0.0000000000
      6825        56  QMPE      H9Y             7.2882211557       31.4144433427        3.2449168531  MEMB      56              0.0000000000
      6826        56  QMPE      C310            5.8803361195       32.6315815915        1.9972445247  MEMB      56              0.0000000000
      6827        56  QMPE      H10X            6.3944139718       32.2932796974        1.0722593125  MEMB      56              0.0000000000
      6828        56  QMPE      H10Y            6.1400333039       33.6594545313        2.3294415581  MEMB      56              0.0000000000
      6829        56  QMPE      C311            4.4301799457       32.6768372528        1.5865063546  MEMB      56              0.0000000000
      6830        56  QMPE      H11X            4.3857523325       33.4017204003        0.7457374178  MEMB      56              0.0000000000
      6831        56  QMPE      H11Y            3.7960556483       33.0511708653        2.4184218723  MEMB      56              0.0000000000
      6832        56  QMPE      C312            3.9226773493       31.3701820711        1.0081669779  MEMB      56              0.0000000000
      6833        56  QMPE      H12X            3.6641848535       30.7411295042        1.8866872478  MEMB      56              0.0000000000
      6834        56  QMPE      H12Y            4.7472644138       30.8244927301        0.5016093366  MEMB      56              0.0000000000
      6835        56  QMPE      C313            2.6625427863       31.4819063141        0.0969036365  MEMB      56              0.0000000000
      6836        56  QMPE      H13X            1.8522744793       32.0841777051        0.5606449248  MEMB      56              0.0000000000
      6837        56  QMPE      H13Y            2.9925036031       32.0384257622       -0.8062763979  MEMB      56              0.0000000000
      6838        56  QMPE      C314            2.0454129128       30.2163378166       -0.5112079827  MEMB      56              0.0000000000
      6839        56  QMPE      H14X            1.1787745290       30.0617144482        0.1665459545  MEMB      56              0.0000000000
      6840        56  QMPE      H14Y            2.8376293475       29.4417453509       -0.4292257314  MEMB      56              0.0000000000
      6841        56  QMPE      C315            1.4881093721       30.3888598539       -1.9414214982  MEMB      56              0.0000000000
      6842        56  QMPE      H15X            0.9271599245       29.4539986131       -2.1551775440  MEMB      56              0.0000000000
      6843        56  QMPE      H15Y            0.8877955411       31.3107032611       -2.0968218560  MEMB      56              0.0000000000
      6844        56  QMPE      H15Z            2.3866852058       30.4396510800       -2.5928074122  MEMB      56              0.0000000000
      6845        57  PMPE      N             -27.5509258604       21.4649381937       19.3408133991  MEMB      57              0.0000000000
      6846        57  PMPE      HN1           -27.7121999844       20.5482754195       19.8048391568  MEMB      57              0.0000000000
      6847        57  PMPE      HN2           -27.4726832982       22.2080858956       20.0641457609  MEMB      57              0.0000000000
      6848        57  PMPE      HN3           -28.3126932270       21.7005889160       18.6731463769  MEMB      57              0.0000000000
      6849        57  PMPE      C12           -26.3539811236       21.1241585899       18.5544065288  MEMB      57              0.0000000000
      6850        57  PMPE      H12A          -26.7085098809       20.5741884065       17.6565404800  MEMB      57              0.0000000000
      6851        57  PMPE      H12B          -25.8060164689       20.4338385049       19.2308042644  MEMB      57              0.0000000000
      6852        57  PMPE      C11           -25.6089984906       22.4065628350       18.0480394000  MEMB      57              0.0000000000
      6853        57  PMPE      H11A          -26.3533626886       23.0902721213       17.5867536001  MEMB      57              0.0000000000
      6854        57  PMPE      H11B          -24.8710235715       21.9761298818       17.3377989091  MEMB      57              0.0000000000
      6855        57  PMPE      P             -23.3756767126       23.1881169978       19.2741672751  MEMB      57              0.0000000000
      6856        57  PMPE      O13           -22.7489646539       21.8444377394       19.4148362206  MEMB      57              0.0000000000
      6857        57  PMPE      O14           -23.1084825158       24.1962370076       20.3271333753  MEMB      57              0.0000000000
      6858        57  PMPE      O11           -23.0147036749       23.8745712384       17.8982311575  MEMB      57              0.0000000000
      6859        57  PMPE      O12           -25.0061965690       23.1078813980       19.1423726432  MEMB      57              0.0000000000
      6860        57  PMPE      C1            -23.2213034796       25.2395942120       17.5369911024  MEMB      57              0.0000000000
      6861        57  PMPE      HA            -22.5457714950       25.8532133388       18.1705912525  MEMB      57              0.0000000000
      6862        57  PMPE      HB            -24.2484445020       25.6117302325       17.7390228593  MEMB      57              0.0000000000
      6863        57  PMPE      C2            -22.8971938765       25.6083189441       16.0736241808  MEMB      57              0.0000000000
      6864        57  PMPE      HS            -22.9284523484       26.7142811798       15.9726714347  MEMB      57              0.0000000000
      6865        57  PMPE      O21           -23.6333271140       24.9189992289       15.0469965190  MEMB      57              0.0000000000
      6866        57  PMPE      C21           -24.9510169457       24.9690328759       15.1112314642  MEMB      57              0.0000000000
      6867        57  PMPE      O22           -25.5722803699       25.6904968153       15.8681854072  MEMB      57              0.0000000000
      6868        57  PMPE      C22           -25.5561140068       24.1498432893       13.8296149229  MEMB      57              0.0000000000
      6869        57  PMPE      H2R           -25.6188741821       24.7177783931       12.8768130640  MEMB      57              0.0000000000
      6870        57  PMPE      H2S           -26.5489047805       23.7752278436       14.1587815917  MEMB      57              0.0000000000
      6871        57  PMPE      C3            -21.4125685097       25.3018664699       15.7565422229  MEMB      57              0.0000000000
      6872        57  PMPE      HX            -21.2906292601       24.2008236132       15.8411382979  MEMB      57              0.0000000000
      6873        57  PMPE      HY            -20.6981802684       25.9099198631       16.3517237573  MEMB      57              0.0000000000
      6874        57  PMPE      O31           -21.1775398268       25.5489977522       14.3826200199  MEMB      57              0.0000000000
      6875        57  PMPE      C31           -21.0045215132       26.8408106530       14.0696777917  MEMB      57              0.0000000000
      6876        57  PMPE      O32           -21.2312093434       27.7770407303       14.8067829650  MEMB      57              0.0000000000
      6877        57  PMPE      C32           -20.6031474626       26.9887770893       12.6485499263  MEMB      57              0.0000000000
      6878        57  PMPE      H2X           -20.5912397723       26.0164530426       12.1111809227  MEMB      57              0.0000000000
      6879        57  PMPE      H2Y           -19.5280170275       27.2604339597       12.5805938248  MEMB      57              0.0000000000
      6880        57  PMPE      C23           -24.6774737839       22.9153782789       13.4120292225  MEMB      57              0.0000000000
      6881        57  PMPE      H3R           -24.6917746688       22.0968530097       14.1631173091  MEMB      57              0.0000000000
      6882        57  PMPE      H3S           -23.6510315944       23.2998656853       13.2306273404  MEMB      57              0.0000000000
      6883        57  PMPE      C24           -25.3390849667       22.3345694954       12.1570496124  MEMB      57              0.0000000000
      6884        57  PMPE      H4R           -25.5189608549       23.1361071819       11.4090502410  MEMB      57              0.0000000000
      6885        57  PMPE      H4S           -26.3720549164       21.9469125324       12.2874952657  MEMB      57              0.0000000000
      6886        57  PMPE      C25           -24.4398150752       21.2568224533       11.4481263544  MEMB      57              0.0000000000
      6887        57  PMPE      H5R           -24.6021061525       20.2428683938       11.8722487786  MEMB      57              0.0000000000
      6888        57  PMPE      H5S           -23.3918208615       21.5824476089       11.6213241097  MEMB      57              0.0000000000
      6889        57  PMPE      C26           -24.7007171257       21.1055314171        9.9214001421  MEMB      57              0.0000000000
      6890        57  PMPE      H6R           -24.5431210542       22.0784657958        9.4086786353  MEMB      57              0.0000000000
      6891        57  PMPE      H6S           -25.7672600017       20.7979624936        9.8744015617  MEMB      57              0.0000000000
      6892        57  PMPE      C27           -23.9187508112       19.9622188035        9.2705372466  MEMB      57              0.0000000000
      6893        57  PMPE      H7R           -24.1140957498       19.1484372349       10.0012357276  MEMB      57              0.0000000000
      6894        57  PMPE      H7S           -22.8475153116       20.2527756603        9.2220415264  MEMB      57              0.0000000000
      6895        57  PMPE      C28           -24.3932811640       19.5285197227        7.8933644072  MEMB      57              0.0000000000
      6896        57  PMPE      H8R           -24.6556796199       20.4534111636        7.3365480118  MEMB      57              0.0000000000
      6897        57  PMPE      H8S           -25.3199152466       18.9250947708        8.0008289832  MEMB      57              0.0000000000
      6898        57  PMPE      C29           -23.3308103820       18.6870246897        7.1669156131  MEMB      57              0.0000000000
      6899        57  PMPE      H9R           -23.0220227210       17.6952999939        7.5611910648  MEMB      57              0.0000000000
      6900        57  PMPE      C217          -22.4113448044       19.4089965733        6.1946180265  MEMB      57              0.0000000000
      6901        57  PMPE      H17R          -21.4717242527       18.8709427655        6.2169930026  MEMB      57              0.0000000000
      6902        57  PMPE      H17S          -22.5085269249       20.4854402846        6.2632743182  MEMB      57              0.0000000000
      6903        57  PMPE      C210          -23.5534016844       18.5778568379        5.6629324376  MEMB      57              0.0000000000
      6904        57  PMPE      H10R          -23.2479952448       17.6467172771        5.1394572666  MEMB      57              0.0000000000
      6905        57  PMPE      C211          -24.7781286150       19.3241910216        5.0350029567  MEMB      57              0.0000000000
      6906        57  PMPE      H11R          -24.8416708510       20.4247071004        5.1733774327  MEMB      57              0.0000000000
      6907        57  PMPE      H11S          -25.6023912825       18.8526085696        5.6116499815  MEMB      57              0.0000000000
      6908        57  PMPE      C212          -25.0680926866       18.9259792709        3.5733334241  MEMB      57              0.0000000000
      6909        57  PMPE      H12R          -26.1193748240       19.1793072425        3.3184763853  MEMB      57              0.0000000000
      6910        57  PMPE      H12S          -24.8886632602       17.8317052794        3.5048470445  MEMB      57              0.0000000000
      6911        57  PMPE      C213          -24.1803354116       19.5717945352        2.4675597500  MEMB      57              0.0000000000
      6912        57  PMPE      H13R          -23.1593376018       19.7070835975        2.8841908065  MEMB      57              0.0000000000
      6913        57  PMPE      H13S          -24.3841735118       20.5987498834        2.0958965665  MEMB      57              0.0000000000
      6914        57  PMPE      C214          -24.1169038547       18.6687955270        1.2752455852  MEMB      57              0.0000000000
      6915        57  PMPE      H14R          -25.0541348393       18.4584082596        0.7169843471  MEMB      57              0.0000000000
      6916        57  PMPE      H14S          -23.6293420888       17.7201720446        1.5862405204  MEMB      57              0.0000000000
      6917        57  PMPE      C215          -23.1085006000       19.1211424447        0.2210374226  MEMB      57              0.0000000000
      6918        57  PMPE      H15R          -22.9028830183       18.2901967347       -0.4871792342  MEMB      57              0.0000000000
      6919        57  PMPE      H15S          -22.1776632455       19.4529696653        0.7287313198  MEMB      57              0.0000000000
      6920        57  PMPE      C216          -23.6441675040       20.1711364601       -0.6705230045  MEMB      57              0.0000000000
      6921        57  PMPE      H16R          -24.5994284259       19.9792777332       -1.2043660033  MEMB      57              0.0000000000
      6922        57  PMPE      H16S          -23.6632657205       21.1292549699       -0.1084165408  MEMB      57              0.0000000000
      6923        57  PMPE      H16T          -22.8158152174       20.3187116556       -1.3960407138  MEMB      57              0.0000000000
      6924        57  PMPE      C33           -21.4264228303       28.0378360776       11.8375303275  MEMB      57              0.0000000000
      6925        57  PMPE      H3X           -20.9174938019       28.0406638188       10.8499555475  MEMB      57              0.0000000000
      6926        57  PMPE      H3Y           -21.1495841229       29.0389440194       12.2318191480  MEMB      57              0.0000000000
      6927        57  PMPE      C34           -22.9086099463       27.7745043104       11.7461067346  MEMB      57              0.0000000000
      6928        57  PMPE      H4X           -23.4276755240       28.5597105871       11.1559006906  MEMB      57              0.0000000000
      6929        57  PMPE      H4Y           -23.3040158481       27.8604016044       12.7808032367  MEMB      57              0.0000000000
      6930        57  PMPE      C35           -23.3335788565       26.3934441116       11.1887884493  MEMB      57              0.0000000000
      6931        57  PMPE      H5X           -24.4310711802       26.2243601577       11.1535418985  MEMB      57              0.0000000000
      6932        57  PMPE      H5Y           -22.8368683870       25.5623205412       11.7336121298  MEMB      57              0.0000000000
      6933        57  PMPE      C36           -22.8343034478       26.1803438935        9.7458286543  MEMB      57              0.0000000000
      6934        57  PMPE      H6X           -21.7352358560       26.3241901997        9.6704676145  MEMB      57              0.0000000000
      6935        57  PMPE      H6Y           -23.2443788992       26.9158823129        9.0211615847  MEMB      57              0.0000000000
      6936        57  PMPE      C37           -23.1986974394       24.7558084314        9.3269144187  MEMB      57              0.0000000000
      6937        57  PMPE      H7X           -24.2977948793       24.6224956216        9.2345376403  MEMB      57              0.0000000000
      6938        57  PMPE      H7Y           -22.9714122958       24.0436992211       10.1488407569  MEMB      57              0.0000000000
      6939        57  PMPE      C38           -22.4736936366       24.1103550307        8.1318970643  MEMB      57              0.0000000000
      6940        57  PMPE      H8X           -22.7003138218       23.0233002735        8.0961739850  MEMB      57              0.0000000000
      6941        57  PMPE      H8Y           -21.4196539178       24.1733789316        8.4773667960  MEMB      57              0.0000000000
      6942        57  PMPE      C39           -22.5788638594       24.8612972018        6.7815046698  MEMB      57              0.0000000000
      6943        57  PMPE      H9X           -22.4476791727       25.9635369061        6.8281853268  MEMB      57              0.0000000000
      6944        57  PMPE      H9Y           -23.6377259435       24.7873839346        6.4533752545  MEMB      57              0.0000000000
      6945        57  PMPE      C310          -21.7807275957       24.2654722272        5.6168173837  MEMB      57              0.0000000000
      6946        57  PMPE      H10X          -22.1383430850       23.2664241464        5.2876746632  MEMB      57              0.0000000000
      6947        57  PMPE      H10Y          -20.7191708033       24.1400312086        5.9196090634  MEMB      57              0.0000000000
      6948        57  PMPE      C311          -22.0017480075       25.1000594665        4.3028853508  MEMB      57              0.0000000000
      6949        57  PMPE      H11X          -21.7419291446       24.5239067609        3.3891762823  MEMB      57              0.0000000000
      6950        57  PMPE      H11Y          -21.3000816957       25.9573542243        4.3867370600  MEMB      57              0.0000000000
      6951        57  PMPE      C312          -23.3962061476       25.8058337657        4.1027539657  MEMB      57              0.0000000000
      6952        57  PMPE      H12X          -23.2324513033       26.5465412138        3.2910532205  MEMB      57              0.0000000000
      6953        57  PMPE      H12Y          -23.7137343279       26.2805095137        5.0557384246  MEMB      57              0.0000000000
      6954        57  PMPE      C313          -24.4872666693       24.7778943435        3.5970437334  MEMB      57              0.0000000000
      6955        57  PMPE      H13X          -25.4535133487       25.3105648560        3.4668486257  MEMB      57              0.0000000000
      6956        57  PMPE      H13Y          -24.6080566688       24.1231868907        4.4864758994  MEMB      57              0.0000000000
      6957        57  PMPE      C314          -24.0971172887       23.9933740640        2.3209931262  MEMB      57              0.0000000000
      6958        57  PMPE      H14X          -23.5419136268       23.0722731699        2.5996385442  MEMB      57              0.0000000000
      6959        57  PMPE      H14Y          -23.4744847772       24.6548140820        1.6813465878  MEMB      57              0.0000000000
      6960        57  PMPE      C315          -25.3935877889       23.5746312937        1.5524559488  MEMB      57              0.0000000000
      6961        57  PMPE      H15X          -24.9928151937       22.9772805494        0.7057715735  MEMB      57              0.0000000000
      6962        57  PMPE      H15Y          -25.9108450858       24.5039116452        1.2312023455  MEMB      57              0.0000000000
      6963        57  PMPE      C316          -26.4353965432       22.8969231165        2.4672299716  MEMB      57              0.0000000000
      6964        57  PMPE      H16X          -26.0466335135       22.1536640866        3.1957567084  MEMB      57              0.0000000000
      6965        57  PMPE      H16Y          -27.2456128150       22.4621118380        1.8436846782  MEMB      57              0.0000000000
      6966        57  PMPE      H16Z          -26.9275949343       23.6136043767        3.1589165966  MEMB      57              0.0000000000
      6967        58  PMPE      N              -8.0317981455       30.2085396075       20.2427448966  MEMB      58              0.0000000000
      6968        58  PMPE      HN1            -8.5546352382       30.6908048648       21.0014686443  MEMB      58              0.0000000000
      6969        58  PMPE      HN2            -7.6562053024       29.3001811090       20.5824723450  MEMB      58              0.0000000000
      6970        58  PMPE      HN3            -7.3301454086       30.8729523878       19.8582462673  MEMB      58              0.0000000000
      6971        58  PMPE      C12            -9.0251297616       29.9781132570       19.1997227451  MEMB      58              0.0000000000
      6972        58  PMPE      H12A           -9.9421018028       29.6338302403       19.7240818553  MEMB      58              0.0000000000
      6973        58  PMPE      H12B           -8.6421075080       29.1084353131       18.6241573761  MEMB      58              0.0000000000
      6974        58  PMPE      C11            -9.1402457056       31.2250931354       18.2239714637  MEMB      58              0.0000000000
      6975        58  PMPE      H11A           -9.8479058285       30.9420624439       17.4156202168  MEMB      58              0.0000000000
      6976        58  PMPE      H11B           -8.1060835705       31.3131974808       17.8276542238  MEMB      58              0.0000000000
      6977        58  PMPE      P             -11.0029301053       32.9462100367       18.9126927663  MEMB      58              0.0000000000
      6978        58  PMPE      O13           -10.9808715468       34.3476629255       19.3312635476  MEMB      58              0.0000000000
      6979        58  PMPE      O14           -11.9731183864       32.1576271962       19.7034932610  MEMB      58              0.0000000000
      6980        58  PMPE      O11           -11.3161477855       32.8982423536       17.3984482704  MEMB      58              0.0000000000
      6981        58  PMPE      O12            -9.5249753599       32.3378578904       18.9876630468  MEMB      58              0.0000000000
      6982        58  PMPE      C1            -12.2516114080       32.0197567972       16.8150049890  MEMB      58              0.0000000000
      6983        58  PMPE      HA            -13.2862121648       32.3125125755       17.0946772919  MEMB      58              0.0000000000
      6984        58  PMPE      HB            -12.0160893401       30.9857710474       17.1462509737  MEMB      58              0.0000000000
      6985        58  PMPE      C2            -12.0995630830       32.0377885502       15.2752064286  MEMB      58              0.0000000000
      6986        58  PMPE      HS            -12.8719239507       31.3864658299       14.8130823543  MEMB      58              0.0000000000
      6987        58  PMPE      O21           -10.7640473183       31.6602117222       15.0361457525  MEMB      58              0.0000000000
      6988        58  PMPE      C21           -10.4710687895       30.7151977995       14.1179401280  MEMB      58              0.0000000000
      6989        58  PMPE      O22           -11.2863346106       30.0421099641       13.4351506760  MEMB      58              0.0000000000
      6990        58  PMPE      C22            -8.9435806010       30.4500818400       14.1245230146  MEMB      58              0.0000000000
      6991        58  PMPE      H2R            -8.7196093835       30.1735949647       15.1770022873  MEMB      58              0.0000000000
      6992        58  PMPE      H2S            -8.4525578093       31.4120542148       13.8640870584  MEMB      58              0.0000000000
      6993        58  PMPE      C3            -12.4847491421       33.4506900899       14.6967359387  MEMB      58              0.0000000000
      6994        58  PMPE      HX            -11.6581891233       34.1785379476       14.8428765790  MEMB      58              0.0000000000
      6995        58  PMPE      HY            -13.3648346728       33.7589941653       15.3006557314  MEMB      58              0.0000000000
      6996        58  PMPE      O31           -12.8786526375       33.3819476175       13.3002821651  MEMB      58              0.0000000000
      6997        58  PMPE      C31           -11.9092928600       33.6522802638       12.4440660124  MEMB      58              0.0000000000
      6998        58  PMPE      O32           -10.7280479072       33.7163988002       12.7605004321  MEMB      58              0.0000000000
      6999        58  PMPE      C32           -12.5791780102       33.8002651923       11.0949941579  MEMB      58              0.0000000000
      7000        58  PMPE      H2X           -12.2972806985       34.7413935816       10.5762143599  MEMB      58              0.0000000000
      7001        58  PMPE      H2Y           -13.6626427656       33.8556483595       11.3344890744  MEMB      58              0.0000000000
      7002        58  PMPE      C23            -8.6316473960       29.2680098661       13.2380566640  MEMB      58              0.0000000000
      7003        58  PMPE      H3R            -9.3563763494       28.4548894920       13.4569721660  MEMB      58              0.0000000000
      7004        58  PMPE      H3S            -7.6368464042       28.8979354461       13.5662899745  MEMB      58              0.0000000000
      7005        58  PMPE      C24            -8.6222752239       29.7970745898       11.8545192225  MEMB      58              0.0000000000
      7006        58  PMPE      H4R            -7.9167126287       30.6349523146       11.6688757842  MEMB      58              0.0000000000
      7007        58  PMPE      H4S            -9.6205899542       30.2167865173       11.6064655340  MEMB      58              0.0000000000
      7008        58  PMPE      C25            -8.0546334121       28.7805159951       10.8901708216  MEMB      58              0.0000000000
      7009        58  PMPE      H5R            -8.6450458638       27.8614943402       11.0929841200  MEMB      58              0.0000000000
      7010        58  PMPE      H5S            -7.0016654417       28.5901337810       11.1890592739  MEMB      58              0.0000000000
      7011        58  PMPE      C26            -8.1539970816       29.0711656556        9.3920018290  MEMB      58              0.0000000000
      7012        58  PMPE      H6R            -9.1159370379       29.5693253171        9.1453654385  MEMB      58              0.0000000000
      7013        58  PMPE      H6S            -8.1276695129       28.1263986440        8.8080136813  MEMB      58              0.0000000000
      7014        58  PMPE      C27            -7.1122939009       30.0719317326        8.9623993890  MEMB      58              0.0000000000
      7015        58  PMPE      H7R            -6.1609661588       29.5055616778        8.8700874915  MEMB      58              0.0000000000
      7016        58  PMPE      H7S            -6.8088208164       30.8158098189        9.7297788220  MEMB      58              0.0000000000
      7017        58  PMPE      C28            -7.4331126910       30.8043848579        7.6513773860  MEMB      58              0.0000000000
      7018        58  PMPE      H8R            -7.7870597553       30.0585473286        6.9078925108  MEMB      58              0.0000000000
      7019        58  PMPE      H8S            -6.5145000262       31.2685830765        7.2330576517  MEMB      58              0.0000000000
      7020        58  PMPE      C29            -8.3090830967       31.9144775320        7.9236509303  MEMB      58              0.0000000000
      7021        58  PMPE      H9R            -8.1521892428       32.5313009759        8.8342731251  MEMB      58              0.0000000000
      7022        58  PMPE      C217           -9.8241272075       31.7700189167        7.6776726803  MEMB      58              0.0000000000
      7023        58  PMPE      H17R          -10.4583013855       32.3129821733        8.3675303218  MEMB      58              0.0000000000
      7024        58  PMPE      H17S          -10.0214666948       30.7999387751        7.2384802900  MEMB      58              0.0000000000
      7025        58  PMPE      C210           -9.0380652095       32.6392850287        6.7573581060  MEMB      58              0.0000000000
      7026        58  PMPE      H10R           -9.0847623848       33.7482856958        6.8048689852  MEMB      58              0.0000000000
      7027        58  PMPE      C211           -8.9255528496       32.0575161278        5.3690620054  MEMB      58              0.0000000000
      7028        58  PMPE      H11R           -8.9574918458       30.9470528765        5.3821842954  MEMB      58              0.0000000000
      7029        58  PMPE      H11S           -7.9399397207       32.4168730947        5.0033433340  MEMB      58              0.0000000000
      7030        58  PMPE      C212          -10.1171845917       32.4951984775        4.5176887291  MEMB      58              0.0000000000
      7031        58  PMPE      H12R          -11.0517201128       32.0760062545        4.9480864381  MEMB      58              0.0000000000
      7032        58  PMPE      H12S           -9.8614511439       32.0045324242        3.5542742298  MEMB      58              0.0000000000
      7033        58  PMPE      C213          -10.1007641752       34.0500725180        4.2611240013  MEMB      58              0.0000000000
      7034        58  PMPE      H13R           -9.0372428317       34.3095217749        4.0715730314  MEMB      58              0.0000000000
      7035        58  PMPE      H13S          -10.3872719319       34.5468113070        5.2126942277  MEMB      58              0.0000000000
      7036        58  PMPE      C214          -10.9309711739       34.6201957280        3.1101860538  MEMB      58              0.0000000000
      7037        58  PMPE      H14R          -10.8369372091       35.7267940236        3.1404809051  MEMB      58              0.0000000000
      7038        58  PMPE      H14S          -12.0220369569       34.4412510323        3.2191598436  MEMB      58              0.0000000000
      7039        58  PMPE      C215          -10.6272276650       34.0653248820        1.7451544053  MEMB      58              0.0000000000
      7040        58  PMPE      H15R          -11.2763635689       34.6392953291        1.0498106057  MEMB      58              0.0000000000
      7041        58  PMPE      H15S          -10.9525646645       33.0071845289        1.6512595655  MEMB      58              0.0000000000
      7042        58  PMPE      C216           -9.1523206854       34.2501896769        1.3219676060  MEMB      58              0.0000000000
      7043        58  PMPE      H16R           -9.1527292250       34.0305621468        0.2328930014  MEMB      58              0.0000000000
      7044        58  PMPE      H16S           -8.7671273789       35.2825997829        1.4636594063  MEMB      58              0.0000000000
      7045        58  PMPE      H16T           -8.6447746943       33.4157881349        1.8515824352  MEMB      58              0.0000000000
      7046        58  PMPE      C33           -12.2297746142       32.5490633963       10.2731121369  MEMB      58              0.0000000000
      7047        58  PMPE      H3X           -11.1519397342       32.2796695465       10.2775923015  MEMB      58              0.0000000000
      7048        58  PMPE      H3Y           -12.4394648152       32.7092906336        9.1939091878  MEMB      58              0.0000000000
      7049        58  PMPE      C34           -13.0441130192       31.3095091300       10.7551853541  MEMB      58              0.0000000000
      7050        58  PMPE      H4X           -14.0609279832       31.5601221577       10.3842384692  MEMB      58              0.0000000000
      7051        58  PMPE      H4Y           -13.0352158428       31.1435848677       11.8536890499  MEMB      58              0.0000000000
      7052        58  PMPE      C35           -12.6445308336       29.9017869318       10.2361443707  MEMB      58              0.0000000000
      7053        58  PMPE      H5X           -13.2336079186       29.1740099715       10.8341822692  MEMB      58              0.0000000000
      7054        58  PMPE      H5Y           -11.5887887552       29.6502740899       10.4737801425  MEMB      58              0.0000000000
      7055        58  PMPE      C36           -13.0272446228       29.8764557850        8.7372845527  MEMB      58              0.0000000000
      7056        58  PMPE      H6X           -12.3288767976       30.5486990624        8.1944290756  MEMB      58              0.0000000000
      7057        58  PMPE      H6Y           -14.0180354106       30.3687136616        8.6356148129  MEMB      58              0.0000000000
      7058        58  PMPE      C37           -13.0254531034       28.4550980978        8.1706182796  MEMB      58              0.0000000000
      7059        58  PMPE      H7X           -13.8027855665       27.9495895495        8.7826124077  MEMB      58              0.0000000000
      7060        58  PMPE      H7Y           -12.0430723324       27.9392392631        8.2266418854  MEMB      58              0.0000000000
      7061        58  PMPE      C38           -13.6097644573       28.3206180349        6.7490048637  MEMB      58              0.0000000000
      7062        58  PMPE      H8X           -14.4859580622       28.9925993675        6.6263389655  MEMB      58              0.0000000000
      7063        58  PMPE      H8Y           -13.9102066729       27.2677048596        6.5607773475  MEMB      58              0.0000000000
      7064        58  PMPE      C39           -12.4711211238       28.6868417869        5.6815269223  MEMB      58              0.0000000000
      7065        58  PMPE      H9X           -11.4612983999       28.3169310638        5.9603543206  MEMB      58              0.0000000000
      7066        58  PMPE      H9Y           -12.4629803438       29.7954166447        5.6086129857  MEMB      58              0.0000000000
      7067        58  PMPE      C310          -12.8743750772       28.0864100307        4.3557119196  MEMB      58              0.0000000000
      7068        58  PMPE      H10X          -13.9825016281       28.0273436545        4.3019747076  MEMB      58              0.0000000000
      7069        58  PMPE      H10Y          -12.5261806686       27.0714461161        4.0677371077  MEMB      58              0.0000000000
      7070        58  PMPE      C311          -12.4198036738       28.9344125029        3.1669772140  MEMB      58              0.0000000000
      7071        58  PMPE      H11X          -12.6650616163       29.9699442537        3.4861064998  MEMB      58              0.0000000000
      7072        58  PMPE      H11Y          -13.0248700694       28.7059556634        2.2636379124  MEMB      58              0.0000000000
      7073        58  PMPE      C312          -10.9039121746       28.8692452241        2.8644238578  MEMB      58              0.0000000000
      7074        58  PMPE      H12X          -10.3628307758       29.2116181630        3.7723528262  MEMB      58              0.0000000000
      7075        58  PMPE      H12Y          -10.6617481133       29.4793925911        1.9681000411  MEMB      58              0.0000000000
      7076        58  PMPE      C313          -10.3790037949       27.4168107457        2.5173111681  MEMB      58              0.0000000000
      7077        58  PMPE      H13X          -11.1926048263       26.8119709285        2.0628394745  MEMB      58              0.0000000000
      7078        58  PMPE      H13Y          -10.1291433957       26.9092194032        3.4734711543  MEMB      58              0.0000000000
      7079        58  PMPE      C314           -9.1402597407       27.3279816921        1.6121228040  MEMB      58              0.0000000000
      7080        58  PMPE      H14X           -9.4089572810       27.7569417591        0.6231247272  MEMB      58              0.0000000000
      7081        58  PMPE      H14Y           -8.8716077380       26.2556922405        1.5010243507  MEMB      58              0.0000000000
      7082        58  PMPE      C315           -7.9675124779       27.9917876140        2.2343062909  MEMB      58              0.0000000000
      7083        58  PMPE      H15X           -7.6449615209       27.3133973610        3.0528835092  MEMB      58              0.0000000000
      7084        58  PMPE      H15Y           -8.2500222025       28.9896967775        2.6326602250  MEMB      58              0.0000000000
      7085        58  PMPE      C316           -6.8356900797       28.2108634351        1.2500250123  MEMB      58              0.0000000000
      7086        58  PMPE      H16X           -6.0510899027       28.8095386667        1.7602332062  MEMB      58              0.0000000000
      7087        58  PMPE      H16Y           -7.2339557940       28.6412953135        0.3063965123  MEMB      58              0.0000000000
      7088        58  PMPE      H16Z           -6.3586333165       27.2262315948        1.0570547140  MEMB      58              0.0000000000
      7089        59  PMPE      N             -14.9497704027      -33.3005768856       18.6056611546  MEMB      59              0.0000000000
      7090        59  PMPE      HN1           -15.1732463685      -32.3796339096       19.0340564692  MEMB      59              0.0000000000
      7091        59  PMPE      HN2           -15.8692105113      -33.7065129244       18.3383683725  MEMB      59              0.0000000000
      7092        59  PMPE      HN3           -14.3795984917      -33.9158483938       19.2204336531  MEMB      59              0.0000000000
      7093        59  PMPE      C12           -14.0671040404      -32.8565862629       17.4977542981  MEMB      59              0.0000000000
      7094        59  PMPE      H12A          -14.6193069219      -32.0885269146       16.9151070657  MEMB      59              0.0000000000
      7095        59  PMPE      H12B          -13.9363293176      -33.7753962616       16.8870113481  MEMB      59              0.0000000000
      7096        59  PMPE      C11           -12.7705268509      -32.2898488121       18.0041667322  MEMB      59              0.0000000000
      7097        59  PMPE      H11A          -12.2367227457      -31.8501227181       17.1346754532  MEMB      59              0.0000000000
      7098        59  PMPE      H11B          -12.1497136245      -33.1381305178       18.3637917018  MEMB      59              0.0000000000
      7099        59  PMPE      P             -11.6980197915      -30.6320427280       19.6218702984  MEMB      59              0.0000000000
      7100        59  PMPE      O13           -11.0113595184      -31.7229170848       20.3276152240  MEMB      59              0.0000000000
      7101        59  PMPE      O14           -12.1635699976      -29.5580922637       20.5270504602  MEMB      59              0.0000000000
      7102        59  PMPE      O11           -10.6531231264      -30.3057703505       18.4718354474  MEMB      59              0.0000000000
      7103        59  PMPE      O12           -12.9794254715      -31.2292616089       18.9440463857  MEMB      59              0.0000000000
      7104        59  PMPE      C1            -10.0380204936      -29.0020882037       18.2792766737  MEMB      59              0.0000000000
      7105        59  PMPE      HA             -9.1306936449      -28.9009275961       18.9124005117  MEMB      59              0.0000000000
      7106        59  PMPE      HB            -10.7921184661      -28.2295981155       18.5417957684  MEMB      59              0.0000000000
      7107        59  PMPE      C2             -9.6179765955      -28.6124832742       16.7869241053  MEMB      59              0.0000000000
      7108        59  PMPE      HS             -9.2557398408      -27.5638567974       16.7278642997  MEMB      59              0.0000000000
      7109        59  PMPE      O21           -10.8523919554      -28.7049954886       15.9982996583  MEMB      59              0.0000000000
      7110        59  PMPE      C21           -10.9273770876      -28.0206269829       14.8536482132  MEMB      59              0.0000000000
      7111        59  PMPE      O22           -10.0502887832      -27.2865171375       14.4076999914  MEMB      59              0.0000000000
      7112        59  PMPE      C22           -12.0774485125      -28.5073541499       14.0025228424  MEMB      59              0.0000000000
      7113        59  PMPE      H2R           -12.9678271005      -27.8980378048       14.2676272860  MEMB      59              0.0000000000
      7114        59  PMPE      H2S           -12.2471554189      -29.5873444268       14.2003657966  MEMB      59              0.0000000000
      7115        59  PMPE      C3             -8.5507720081      -29.5873457024       16.2329634597  MEMB      59              0.0000000000
      7116        59  PMPE      HX             -7.7038028857      -29.6682795079       16.9473958528  MEMB      59              0.0000000000
      7117        59  PMPE      HY             -8.1732433725      -29.0421832884       15.3415650873  MEMB      59              0.0000000000
      7118        59  PMPE      O31            -9.0405850395      -30.9459713935       15.8764177391  MEMB      59              0.0000000000
      7119        59  PMPE      C31            -9.3325080894      -31.2277794575       14.6789899428  MEMB      59              0.0000000000
      7120        59  PMPE      O32            -9.2849604878      -30.5016291981       13.7169516236  MEMB      59              0.0000000000
      7121        59  PMPE      C32            -9.5976623439      -32.7344586575       14.6443772753  MEMB      59              0.0000000000
      7122        59  PMPE      H2X           -10.5659178251      -32.9135673484       15.1588888683  MEMB      59              0.0000000000
      7123        59  PMPE      H2Y            -8.7873235257      -33.1640385310       15.2713803765  MEMB      59              0.0000000000
      7124        59  PMPE      C23           -11.8942166999      -28.3188175450       12.5443521732  MEMB      59              0.0000000000
      7125        59  PMPE      H3R           -10.9914771289      -28.8759969690       12.2143018310  MEMB      59              0.0000000000
      7126        59  PMPE      H3S           -11.8463800385      -27.2413295697       12.2777952230  MEMB      59              0.0000000000
      7127        59  PMPE      C24           -13.0072277229      -29.0641359802       11.6963723662  MEMB      59              0.0000000000
      7128        59  PMPE      H4R           -14.0084285428      -28.7754803543       12.0818537579  MEMB      59              0.0000000000
      7129        59  PMPE      H4S           -13.0086524365      -30.1712186612       11.7895757229  MEMB      59              0.0000000000
      7130        59  PMPE      C25           -12.9539979411      -28.8957573571       10.1764137848  MEMB      59              0.0000000000
      7131        59  PMPE      H5R           -12.0739264854      -29.4152355517        9.7405955830  MEMB      59              0.0000000000
      7132        59  PMPE      H5S           -12.7776491804      -27.8097984458       10.0217678671  MEMB      59              0.0000000000
      7133        59  PMPE      C26           -14.1417860341      -29.3877532530        9.3787504131  MEMB      59              0.0000000000
      7134        59  PMPE      H6R           -15.1147071725      -29.0187958538        9.7681290802  MEMB      59              0.0000000000
      7135        59  PMPE      H6S           -14.0653635676      -30.4948862112        9.4310695081  MEMB      59              0.0000000000
      7136        59  PMPE      C27           -14.0795145143      -28.9621854546        7.9338982168  MEMB      59              0.0000000000
      7137        59  PMPE      H7R           -13.1375168021      -29.2887758496        7.4436939242  MEMB      59              0.0000000000
      7138        59  PMPE      H7S           -13.8619087966      -27.8805084382        7.8037298224  MEMB      59              0.0000000000
      7139        59  PMPE      C28           -15.2892898170      -29.3149095644        7.0044462330  MEMB      59              0.0000000000
      7140        59  PMPE      H8R           -16.1935132775      -28.7652230564        7.3428913960  MEMB      59              0.0000000000
      7141        59  PMPE      H8S           -15.4542774548      -30.4020655768        7.1631661667  MEMB      59              0.0000000000
      7142        59  PMPE      C29           -15.0134441373      -29.0109845442        5.5222161143  MEMB      59              0.0000000000
      7143        59  PMPE      H9R           -13.9629075913      -29.2058891962        5.2177390720  MEMB      59              0.0000000000
      7144        59  PMPE      C217          -15.5416176962      -27.6107377469        5.0726386017  MEMB      59              0.0000000000
      7145        59  PMPE      H17R          -14.8448632479      -27.0839955240        4.4323533818  MEMB      59              0.0000000000
      7146        59  PMPE      H17S          -16.0714118353      -27.1092524862        5.8730875090  MEMB      59              0.0000000000
      7147        59  PMPE      C210          -16.0643003304      -28.9323961327        4.5562613045  MEMB      59              0.0000000000
      7148        59  PMPE      H10R          -15.8434076242      -29.1848758347        3.4971198708  MEMB      59              0.0000000000
      7149        59  PMPE      C211          -17.5395979786      -29.3468377951        4.9007823585  MEMB      59              0.0000000000
      7150        59  PMPE      H11R          -18.2519830650      -29.0626598123        4.0969971352  MEMB      59              0.0000000000
      7151        59  PMPE      H11S          -17.8424095801      -28.8327037924        5.8379555517  MEMB      59              0.0000000000
      7152        59  PMPE      C212          -17.7370040682      -30.8508951482        5.1978973203  MEMB      59              0.0000000000
      7153        59  PMPE      H12R          -18.6522928376      -30.9718927541        5.8158998973  MEMB      59              0.0000000000
      7154        59  PMPE      H12S          -16.8803953002      -31.3540861941        5.6952313317  MEMB      59              0.0000000000
      7155        59  PMPE      C213          -18.0273807077      -31.6819930929        3.9958100219  MEMB      59              0.0000000000
      7156        59  PMPE      H13R          -18.7275442026      -31.1640302835        3.3060228748  MEMB      59              0.0000000000
      7157        59  PMPE      H13S          -18.5273528839      -32.6518159107        4.2050772630  MEMB      59              0.0000000000
      7158        59  PMPE      C214          -16.7148172629      -32.0675597665        3.3003379820  MEMB      59              0.0000000000
      7159        59  PMPE      H14R          -16.6133692431      -33.1736748552        3.2771257372  MEMB      59              0.0000000000
      7160        59  PMPE      H14S          -15.7686619543      -31.7672464609        3.7992602989  MEMB      59              0.0000000000
      7161        59  PMPE      C215          -16.6214778429      -31.4039843990        1.8359255008  MEMB      59              0.0000000000
      7162        59  PMPE      H15R          -17.0222484630      -30.3713987035        1.7494916134  MEMB      59              0.0000000000
      7163        59  PMPE      H15S          -17.3890191227      -31.8753177679        1.1855042865  MEMB      59              0.0000000000
      7164        59  PMPE      C216          -15.2271275681      -31.5471512203        1.1264215895  MEMB      59              0.0000000000
      7165        59  PMPE      H16R          -14.4821115166      -31.0521158669        1.7853691730  MEMB      59              0.0000000000
      7166        59  PMPE      H16S          -14.9801670886      -32.6074418082        0.9047997744  MEMB      59              0.0000000000
      7167        59  PMPE      H16T          -15.1239066382      -30.9815405773        0.1757616843  MEMB      59              0.0000000000
      7168        59  PMPE      C33            -9.7327280042      -33.3285931189       13.2485820778  MEMB      59              0.0000000000
      7169        59  PMPE      H3X            -9.7193367631      -34.4379590001       13.3073081725  MEMB      59              0.0000000000
      7170        59  PMPE      H3Y            -8.7988258766      -33.0267073247       12.7279930853  MEMB      59              0.0000000000
      7171        59  PMPE      C34           -10.9986936060      -32.8913145790       12.5563830779  MEMB      59              0.0000000000
      7172        59  PMPE      H4X           -10.8748236637      -31.7920936806       12.4529877183  MEMB      59              0.0000000000
      7173        59  PMPE      H4Y           -11.8875169678      -33.1837348728       13.1553859167  MEMB      59              0.0000000000
      7174        59  PMPE      C35           -11.0611781787      -33.5426882611       11.2717552217  MEMB      59              0.0000000000
      7175        59  PMPE      H5X           -11.2027016019      -34.6367255093       11.4035681953  MEMB      59              0.0000000000
      7176        59  PMPE      H5Y           -10.1228330918      -33.2944005514       10.7312162753  MEMB      59              0.0000000000
      7177        59  PMPE      C36           -12.3440564981      -33.1572793976       10.5113271588  MEMB      59              0.0000000000
      7178        59  PMPE      H6X           -12.6479850255      -32.1007190464       10.6714161969  MEMB      59              0.0000000000
      7179        59  PMPE      H6Y           -13.1474694806      -33.8415061132       10.8587209509  MEMB      59              0.0000000000
      7180        59  PMPE      C37           -12.1073475387      -33.5107681673        9.0142505639  MEMB      59              0.0000000000
      7181        59  PMPE      H7X           -12.9740346194      -33.9640773676        8.4872922374  MEMB      59              0.0000000000
      7182        59  PMPE      H7Y           -11.2799208399      -34.2521752553        9.0154919835  MEMB      59              0.0000000000
      7183        59  PMPE      C38           -11.8186883738      -32.2626798386        8.1017583662  MEMB      59              0.0000000000
      7184        59  PMPE      H8X           -10.9610569527      -31.8055752856        8.6401314323  MEMB      59              0.0000000000
      7185        59  PMPE      H8Y           -12.7174930874      -31.6165620244        8.1966413559  MEMB      59              0.0000000000
      7186        59  PMPE      C39           -11.4757063400      -32.6760837419        6.6833718577  MEMB      59              0.0000000000
      7187        59  PMPE      H9X           -12.3991446136      -32.9974462690        6.1558222697  MEMB      59              0.0000000000
      7188        59  PMPE      H9Y           -10.8370428059      -33.5828256351        6.7485546886  MEMB      59              0.0000000000
      7189        59  PMPE      C310          -10.6190288793      -31.5770029564        5.9479043275  MEMB      59              0.0000000000
      7190        59  PMPE      H10X           -9.6451746880      -31.5733663093        6.4826153802  MEMB      59              0.0000000000
      7191        59  PMPE      H10Y          -10.9742914660      -30.5326728995        6.0801328080  MEMB      59              0.0000000000
      7192        59  PMPE      C311          -10.4625458859      -31.9313841464        4.4240513198  MEMB      59              0.0000000000
      7193        59  PMPE      H11X          -10.1751303297      -32.9883793338        4.2383786590  MEMB      59              0.0000000000
      7194        59  PMPE      H11Y           -9.7147883449      -31.2219706779        4.0094287991  MEMB      59              0.0000000000
      7195        59  PMPE      C312          -11.7310816089      -31.7105982866        3.5472509804  MEMB      59              0.0000000000
      7196        59  PMPE      H12X          -12.6312620448      -32.0443209580        4.1063801309  MEMB      59              0.0000000000
      7197        59  PMPE      H12Y          -11.5902875666      -32.3224138168        2.6306368144  MEMB      59              0.0000000000
      7198        59  PMPE      C313          -11.8991219151      -30.2921573824        3.0227979449  MEMB      59              0.0000000000
      7199        59  PMPE      H13X          -12.0172403809      -29.5966454046        3.8810704628  MEMB      59              0.0000000000
      7200        59  PMPE      H13Y          -12.9330611987      -30.1293101975        2.6502766573  MEMB      59              0.0000000000
      7201        59  PMPE      C314          -10.8586727590      -29.7130813653        2.0246487257  MEMB      59              0.0000000000
      7202        59  PMPE      H14X           -9.8376657837      -29.5947857532        2.4463976226  MEMB      59              0.0000000000
      7203        59  PMPE      H14Y          -11.2314123478      -28.6865015142        1.8208825848  MEMB      59              0.0000000000
      7204        59  PMPE      C315          -10.6675086805      -30.5026576813        0.7434983446  MEMB      59              0.0000000000
      7205        59  PMPE      H15X          -10.1615578819      -31.4757138648        0.9209701806  MEMB      59              0.0000000000
      7206        59  PMPE      H15Y           -9.9464568531      -29.8976900020        0.1532277741  MEMB      59              0.0000000000
      7207        59  PMPE      C316          -11.9102099819      -30.8471034911       -0.0978736357  MEMB      59              0.0000000000
      7208        59  PMPE      H16X          -11.5443347582      -31.4164873114       -0.9789285703  MEMB      59              0.0000000000
      7209        59  PMPE      H16Y          -12.4485460233      -29.9188469034       -0.3857192643  MEMB      59              0.0000000000
      7210        59  PMPE      H16Z          -12.6506638327      -31.4866563742        0.4284542719  MEMB      59              0.0000000000
      7211        60  PMPE      N             -22.6183668458      -26.0160114425       18.6682117020  MEMB      60              0.0000000000
      7212        60  PMPE      HN1           -22.7134480850      -26.0079970465       19.7038251742  MEMB      60              0.0000000000
      7213        60  PMPE      HN2           -23.3139157082      -25.3470976807       18.2804410320  MEMB      60              0.0000000000
      7214        60  PMPE      HN3           -22.7129603534      -26.9486587465       18.2178549563  MEMB      60              0.0000000000
      7215        60  PMPE      C12           -21.2106349420      -25.5848796749       18.2993966976  MEMB      60              0.0000000000
      7216        60  PMPE      H12A          -21.1394567399      -24.4929347145       18.4915184434  MEMB      60              0.0000000000
      7217        60  PMPE      H12B          -21.1522043986      -25.8016717894       17.2113213116  MEMB      60              0.0000000000
      7218        60  PMPE      C11           -20.2575885453      -26.5414577367       19.0906803549  MEMB      60              0.0000000000
      7219        60  PMPE      H11A          -20.4662095853      -26.4687231899       20.1794906461  MEMB      60              0.0000000000
      7220        60  PMPE      H11B          -19.2563272606      -26.0722668194       18.9827156396  MEMB      60              0.0000000000
      7221        60  PMPE      P             -19.3403389674      -28.9951801085       19.2494033160  MEMB      60              0.0000000000
      7222        60  PMPE      O13           -19.6838080735      -29.2545798572       20.7089162769  MEMB      60              0.0000000000
      7223        60  PMPE      O14           -17.9111164608      -28.8803747960       18.9189694711  MEMB      60              0.0000000000
      7224        60  PMPE      O11           -19.8824613713      -30.2582974124       18.4223748603  MEMB      60              0.0000000000
      7225        60  PMPE      O12           -20.3317336059      -27.8967877901       18.6420473239  MEMB      60              0.0000000000
      7226        60  PMPE      C1            -21.1945290295      -30.7209487904       18.6577347914  MEMB      60              0.0000000000
      7227        60  PMPE      HA            -21.8487200919      -29.9337275459       19.0897506898  MEMB      60              0.0000000000
      7228        60  PMPE      HB            -21.0458341135      -31.6255371548       19.2853737461  MEMB      60              0.0000000000
      7229        60  PMPE      C2            -21.9933681611      -31.2265908018       17.3179138842  MEMB      60              0.0000000000
      7230        60  PMPE      HS            -22.8321321187      -31.8355627680       17.7178506109  MEMB      60              0.0000000000
      7231        60  PMPE      O21           -21.2467701346      -32.1126100231       16.4842383943  MEMB      60              0.0000000000
      7232        60  PMPE      C21           -21.9087004883      -32.6411609309       15.4292672807  MEMB      60              0.0000000000
      7233        60  PMPE      O22           -23.1000602095      -32.6319404387       15.1615232708  MEMB      60              0.0000000000
      7234        60  PMPE      C22           -21.0115998838      -33.6715052449       14.6630563049  MEMB      60              0.0000000000
      7235        60  PMPE      H2R           -21.6390079180      -34.5298201219       14.3406041324  MEMB      60              0.0000000000
      7236        60  PMPE      H2S           -20.3064567353      -34.1295648393       15.3891937783  MEMB      60              0.0000000000
      7237        60  PMPE      C3            -22.3946675251      -29.9671253987       16.5090772777  MEMB      60              0.0000000000
      7238        60  PMPE      HX            -22.8616609196      -29.1572384131       17.1093447037  MEMB      60              0.0000000000
      7239        60  PMPE      HY            -23.1557376392      -30.2149221747       15.7385642623  MEMB      60              0.0000000000
      7240        60  PMPE      O31           -21.1963907972      -29.3606088132       15.9329989499  MEMB      60              0.0000000000
      7241        60  PMPE      C31           -21.0946471819      -29.1679107103       14.6073670085  MEMB      60              0.0000000000
      7242        60  PMPE      O32           -21.9907689365      -29.2385889722       13.7974924654  MEMB      60              0.0000000000
      7243        60  PMPE      C32           -19.6535956958      -28.6996564882       14.3258795471  MEMB      60              0.0000000000
      7244        60  PMPE      H2X           -18.9576368013      -29.3554015216       14.8915303580  MEMB      60              0.0000000000
      7245        60  PMPE      H2Y           -19.4062491709      -27.6953824445       14.7315573745  MEMB      60              0.0000000000
      7246        60  PMPE      C23           -20.1853968696      -33.1287422931       13.4965531978  MEMB      60              0.0000000000
      7247        60  PMPE      H3R           -19.5985837031      -34.0249181849       13.2018666755  MEMB      60              0.0000000000
      7248        60  PMPE      H3S           -19.4946986373      -32.4034210896       13.9773506270  MEMB      60              0.0000000000
      7249        60  PMPE      C24           -20.8834250214      -32.5896370472       12.2389772922  MEMB      60              0.0000000000
      7250        60  PMPE      H4R           -20.0757325169      -32.1011840132       11.6530014976  MEMB      60              0.0000000000
      7251        60  PMPE      H4S           -21.6495458447      -31.8456268155       12.5452918179  MEMB      60              0.0000000000
      7252        60  PMPE      C25           -21.5245635685      -33.7319247172       11.4845241972  MEMB      60              0.0000000000
      7253        60  PMPE      H5R           -22.0076540603      -34.4136519786       12.2167762827  MEMB      60              0.0000000000
      7254        60  PMPE      H5S           -20.7713493779      -34.3504916973       10.9512654997  MEMB      60              0.0000000000
      7255        60  PMPE      C26           -22.6495699297      -33.2960531587       10.4866416514  MEMB      60              0.0000000000
      7256        60  PMPE      H6R           -23.4814883392      -32.8601371387       11.0801149119  MEMB      60              0.0000000000
      7257        60  PMPE      H6S           -23.1760397611      -34.1014689937        9.9312535876  MEMB      60              0.0000000000
      7258        60  PMPE      C27           -22.1440737740      -32.2544951341        9.4386276387  MEMB      60              0.0000000000
      7259        60  PMPE      H7R           -21.6128069022      -31.4130873802        9.9327026440  MEMB      60              0.0000000000
      7260        60  PMPE      H7S           -23.0082824519      -31.9536416211        8.8085868751  MEMB      60              0.0000000000
      7261        60  PMPE      C28           -21.0015236729      -32.7808022229        8.4528432463  MEMB      60              0.0000000000
      7262        60  PMPE      H8R           -21.4747833443      -33.6004175271        7.8709700516  MEMB      60              0.0000000000
      7263        60  PMPE      H8S           -20.1290203626      -33.2191084723        8.9828872422  MEMB      60              0.0000000000
      7264        60  PMPE      C29           -20.6074880989      -31.6648827994        7.5052139594  MEMB      60              0.0000000000
      7265        60  PMPE      H9R           -20.2375391935      -30.7605096300        8.0339556913  MEMB      60              0.0000000000
      7266        60  PMPE      C217          -21.6887551963      -31.2598574141        6.4702754705  MEMB      60              0.0000000000
      7267        60  PMPE      H17R          -21.7452104946      -30.1784057694        6.4574525168  MEMB      60              0.0000000000
      7268        60  PMPE      H17S          -22.5359376037      -31.9259635120        6.3631620882  MEMB      60              0.0000000000
      7269        60  PMPE      C210          -20.2714467650      -31.8288501282        6.0523488158  MEMB      60              0.0000000000
      7270        60  PMPE      H10R          -19.5723374425      -31.0646822449        5.6503360474  MEMB      60              0.0000000000
      7271        60  PMPE      C211          -20.4047105835      -33.2244219636        5.4048115970  MEMB      60              0.0000000000
      7272        60  PMPE      H11R          -21.4454363234      -33.5690414882        5.5849468442  MEMB      60              0.0000000000
      7273        60  PMPE      H11S          -19.6966188153      -33.9633304058        5.8371787876  MEMB      60              0.0000000000
      7274        60  PMPE      C212          -20.1965749255      -33.0847782559        3.9837802128  MEMB      60              0.0000000000
      7275        60  PMPE      H12R          -20.7218382639      -32.2416549576        3.4862236132  MEMB      60              0.0000000000
      7276        60  PMPE      H12S          -20.4909355126      -34.0919690934        3.6187619393  MEMB      60              0.0000000000
      7277        60  PMPE      C213          -18.7152498489      -32.7659051872        3.5751253398  MEMB      60              0.0000000000
      7278        60  PMPE      H13R          -17.9640411708      -33.4120582939        4.0776115938  MEMB      60              0.0000000000
      7279        60  PMPE      H13S          -18.5260413573      -31.7089791216        3.8604817675  MEMB      60              0.0000000000
      7280        60  PMPE      C214          -18.6357641639      -33.0188482411        2.0552292868  MEMB      60              0.0000000000
      7281        60  PMPE      H14R          -19.0035788962      -32.1647599841        1.4473096492  MEMB      60              0.0000000000
      7282        60  PMPE      H14S          -19.0785584257      -34.0256065772        1.8980920816  MEMB      60              0.0000000000
      7283        60  PMPE      C215          -17.1901641425      -33.3320660896        1.5979450773  MEMB      60              0.0000000000
      7284        60  PMPE      H15R          -17.3036339979      -33.6175459980        0.5302607044  MEMB      60              0.0000000000
      7285        60  PMPE      H15S          -16.8175997876      -34.1698993091        2.2252814501  MEMB      60              0.0000000000
      7286        60  PMPE      C216          -16.2260046849      -32.2452425394        1.7918524595  MEMB      60              0.0000000000
      7287        60  PMPE      H16R          -16.1071464941      -31.8556656009        2.8254967356  MEMB      60              0.0000000000
      7288        60  PMPE      H16S          -15.1917184602      -32.5209052889        1.4942220076  MEMB      60              0.0000000000
      7289        60  PMPE      H16T          -16.5072708913      -31.3228225520        1.2401717928  MEMB      60              0.0000000000
      7290        60  PMPE      C33           -19.3505366536      -28.7969941809       12.8041829172  MEMB      60              0.0000000000
      7291        60  PMPE      H3X           -19.8542509206      -29.6730210750       12.3424796169  MEMB      60              0.0000000000
      7292        60  PMPE      H3Y           -18.2553388217      -28.9652567863       12.7232473317  MEMB      60              0.0000000000
      7293        60  PMPE      C34           -19.7317037721      -27.4558587000       12.0914591452  MEMB      60              0.0000000000
      7294        60  PMPE      H4X           -19.2328752077      -26.6244836973       12.6339596524  MEMB      60              0.0000000000
      7295        60  PMPE      H4Y           -20.8332777225      -27.3252175868       12.1530111146  MEMB      60              0.0000000000
      7296        60  PMPE      C35           -19.2645075765      -27.4978730149       10.5641431622  MEMB      60              0.0000000000
      7297        60  PMPE      H5X           -19.8203772466      -26.7228302975        9.9943722267  MEMB      60              0.0000000000
      7298        60  PMPE      H5Y           -19.6052607012      -28.4946317085       10.2110408567  MEMB      60              0.0000000000
      7299        60  PMPE      C36           -17.7595676437      -27.3068246214       10.2259490702  MEMB      60              0.0000000000
      7300        60  PMPE      H6X           -17.1797540939      -28.0011321529       10.8709871965  MEMB      60              0.0000000000
      7301        60  PMPE      H6Y           -17.3478171305      -26.3362197422       10.5762470427  MEMB      60              0.0000000000
      7302        60  PMPE      C37           -17.4692518666      -27.5309578052        8.6885566724  MEMB      60              0.0000000000
      7303        60  PMPE      H7X           -17.4610292931      -28.6231705773        8.4852719079  MEMB      60              0.0000000000
      7304        60  PMPE      H7Y           -16.5028153773      -27.1561658587        8.2887410163  MEMB      60              0.0000000000
      7305        60  PMPE      C38           -18.5253566033      -26.8246647732        7.8358426270  MEMB      60              0.0000000000
      7306        60  PMPE      H8X           -18.6243936298      -25.7666055756        8.1599158224  MEMB      60              0.0000000000
      7307        60  PMPE      H8Y           -19.5440322780      -27.2635248467        7.8992662490  MEMB      60              0.0000000000
      7308        60  PMPE      C39           -18.0903033208      -26.7370658778        6.3147179447  MEMB      60              0.0000000000
      7309        60  PMPE      H9X           -17.1248661113      -26.1954735041        6.2202220867  MEMB      60              0.0000000000
      7310        60  PMPE      H9Y           -18.9085553107      -26.2696058594        5.7262744053  MEMB      60              0.0000000000
      7311        60  PMPE      C310          -17.7433976258      -28.1309881105        5.6267257300  MEMB      60              0.0000000000
      7312        60  PMPE      H10X          -18.6082123830      -28.8259061465        5.6859325172  MEMB      60              0.0000000000
      7313        60  PMPE      H10Y          -16.8620488276      -28.5936767199        6.1201472994  MEMB      60              0.0000000000
      7314        60  PMPE      C311          -17.3074904839      -28.0459427979        4.1603756047  MEMB      60              0.0000000000
      7315        60  PMPE      H11X          -16.8490498108      -29.0079695764        3.8462770883  MEMB      60              0.0000000000
      7316        60  PMPE      H11Y          -16.5683174550      -27.2412151788        3.9594837467  MEMB      60              0.0000000000
      7317        60  PMPE      C312          -18.4594838585      -28.0273269099        3.1604794459  MEMB      60              0.0000000000
      7318        60  PMPE      H12X          -18.9029996743      -27.0094083218        3.1223134584  MEMB      60              0.0000000000
      7319        60  PMPE      H12Y          -19.2795199331      -28.7339240817        3.4106442992  MEMB      60              0.0000000000
      7320        60  PMPE      C313          -17.9608792365      -28.3793512628        1.7393061348  MEMB      60              0.0000000000
      7321        60  PMPE      H13X          -17.4040015350      -29.3400748835        1.7043917907  MEMB      60              0.0000000000
      7322        60  PMPE      H13Y          -17.2940303554      -27.5490010794        1.4228377429  MEMB      60              0.0000000000
      7323        60  PMPE      C314          -18.9553696892      -28.2809105756        0.6152695545  MEMB      60              0.0000000000
      7324        60  PMPE      H14X          -18.5797186713      -27.7015476521       -0.2551017167  MEMB      60              0.0000000000
      7325        60  PMPE      H14Y          -19.8672819728      -27.7163988012        0.9052065010  MEMB      60              0.0000000000
      7326        60  PMPE      C315          -19.1968043742      -29.7063042328        0.1599711404  MEMB      60              0.0000000000
      7327        60  PMPE      H15X          -19.6569813189      -30.2407422278        1.0184208835  MEMB      60              0.0000000000
      7328        60  PMPE      H15Y          -18.1729950505      -30.0967279281       -0.0236166557  MEMB      60              0.0000000000
      7329        60  PMPE      C316          -19.9915714843      -29.9551808783       -1.1640609243  MEMB      60              0.0000000000
      7330        60  PMPE      H16X          -19.7986283296      -31.0349372846       -1.3407547359  MEMB      60              0.0000000000
      7331        60  PMPE      H16Y          -19.6320822778      -29.3170547393       -1.9994552836  MEMB      60              0.0000000000
      7332        60  PMPE      H16Z          -21.0519499863      -29.6832835842       -0.9743499990  MEMB      60              0.0000000000
      7333        61  PMPE      N              34.0909554105        2.0734243228       20.5288957089  MEMB      61              0.0000000000
      7334        61  PMPE      HN1            33.3690812780        2.4648789499       21.1670656315  MEMB      61              0.0000000000
      7335        61  PMPE      HN2            34.8053423935        1.5468033829       21.0710411729  MEMB      61              0.0000000000
      7336        61  PMPE      HN3            34.4755693745        2.9654441693       20.1574487652  MEMB      61              0.0000000000
      7337        61  PMPE      C12            33.4325113174        1.3182495142       19.3886047628  MEMB      61              0.0000000000
      7338        61  PMPE      H12A           34.0114491013        1.5443000313       18.4677067343  MEMB      61              0.0000000000
      7339        61  PMPE      H12B           32.3968034731        1.6884669266       19.2318583342  MEMB      61              0.0000000000
      7340        61  PMPE      C11            33.3301002556       -0.1856996177       19.5183796316  MEMB      61              0.0000000000
      7341        61  PMPE      H11A           32.8574675848       -0.6345686178       18.6186819048  MEMB      61              0.0000000000
      7342        61  PMPE      H11B           32.7411817564       -0.5336890211       20.3938219845  MEMB      61              0.0000000000
      7343        61  PMPE      P              35.6217032842       -1.0334489444       18.4856571024  MEMB      61              0.0000000000
      7344        61  PMPE      O13            36.8332328184       -1.6193890095       19.0788824012  MEMB      61              0.0000000000
      7345        61  PMPE      O14            35.9455456756        0.2271322910       17.7117924609  MEMB      61              0.0000000000
      7346        61  PMPE      O11            34.8896712849       -2.1367498096       17.6488102897  MEMB      61              0.0000000000
      7347        61  PMPE      O12            34.6717727540       -0.7268760469       19.6389776424  MEMB      61              0.0000000000
      7348        61  PMPE      C1             34.4119596214       -3.3276985714       18.2251585077  MEMB      61              0.0000000000
      7349        61  PMPE      HA             33.7939904361       -3.1077778687       19.1218580219  MEMB      61              0.0000000000
      7350        61  PMPE      HB             35.2121400211       -4.0492046681       18.4961955588  MEMB      61              0.0000000000
      7351        61  PMPE      C2             33.3879115575       -4.1330968921       17.2736738148  MEMB      61              0.0000000000
      7352        61  PMPE      HS             32.9278013548       -4.9477615820       17.8727906573  MEMB      61              0.0000000000
      7353        61  PMPE      O21            34.0871163320       -4.6297596826       16.1472440755  MEMB      61              0.0000000000
      7354        61  PMPE      C21            33.5464772826       -5.0782326444       15.0880125213  MEMB      61              0.0000000000
      7355        61  PMPE      O22            32.4134407104       -5.4613358209       14.9245816898  MEMB      61              0.0000000000
      7356        61  PMPE      C22            34.5906147614       -5.0624184865       13.9826066589  MEMB      61              0.0000000000
      7357        61  PMPE      H2R            34.9034951302       -6.1166994862       13.8247526748  MEMB      61              0.0000000000
      7358        61  PMPE      H2S            35.5084856687       -4.5110414332       14.2789468742  MEMB      61              0.0000000000
      7359        61  PMPE      C3             32.2078818474       -3.1296838690       16.9424649095  MEMB      61              0.0000000000
      7360        61  PMPE      HX             32.1089095437       -2.5808976702       17.9033806093  MEMB      61              0.0000000000
      7361        61  PMPE      HY             31.2772318482       -3.6431718793       16.6191364671  MEMB      61              0.0000000000
      7362        61  PMPE      O31            32.7798853248       -2.2499692074       15.9566473942  MEMB      61              0.0000000000
      7363        61  PMPE      C31            32.0482267094       -1.2279381228       15.5470339131  MEMB      61              0.0000000000
      7364        61  PMPE      O32            30.9726359484       -0.8691328107       15.8750589234  MEMB      61              0.0000000000
      7365        61  PMPE      C32            32.8871564780       -0.5020770899       14.4674685651  MEMB      61              0.0000000000
      7366        61  PMPE      H2X            33.0926593379       -1.0603381259       13.5291540213  MEMB      61              0.0000000000
      7367        61  PMPE      H2Y            33.9034207390       -0.3611376795       14.8936892140  MEMB      61              0.0000000000
      7368        61  PMPE      C23            34.0045550153       -4.4452069600       12.6692208680  MEMB      61              0.0000000000
      7369        61  PMPE      H3R            34.1435675737       -3.3543761128       12.8276026786  MEMB      61              0.0000000000
      7370        61  PMPE      H3S            32.9924026950       -4.8265709519       12.4153895337  MEMB      61              0.0000000000
      7371        61  PMPE      C24            34.7897183587       -4.9640143704       11.4023567378  MEMB      61              0.0000000000
      7372        61  PMPE      H4R            34.9402686775       -6.0641516765       11.4391390035  MEMB      61              0.0000000000
      7373        61  PMPE      H4S            35.8118207783       -4.5290962170       11.3805884984  MEMB      61              0.0000000000
      7374        61  PMPE      C25            34.1066735990       -4.5665812902       10.0497854394  MEMB      61              0.0000000000
      7375        61  PMPE      H5R            34.0610424844       -3.4819236383        9.8136572201  MEMB      61              0.0000000000
      7376        61  PMPE      H5S            33.0731819985       -4.9206201921       10.2519549177  MEMB      61              0.0000000000
      7377        61  PMPE      C26            34.7750337827       -5.2627146822        8.8027451401  MEMB      61              0.0000000000
      7378        61  PMPE      H6R            35.0263120225       -6.3102753995        9.0744004508  MEMB      61              0.0000000000
      7379        61  PMPE      H6S            35.7627565873       -4.7916317383        8.6108982694  MEMB      61              0.0000000000
      7380        61  PMPE      C27            33.9182781100       -5.1359253409        7.5255515818  MEMB      61              0.0000000000
      7381        61  PMPE      H7R            32.9880863137       -4.5714817666        7.7502022708  MEMB      61              0.0000000000
      7382        61  PMPE      H7S            33.5878243772       -6.1675213313        7.2787106016  MEMB      61              0.0000000000
      7383        61  PMPE      C28            34.5504171642       -4.4950117971        6.3105006063  MEMB      61              0.0000000000
      7384        61  PMPE      H8R            35.4022944114       -5.1297001293        5.9852364366  MEMB      61              0.0000000000
      7385        61  PMPE      H8S            34.9618602969       -3.5115151262        6.6231831776  MEMB      61              0.0000000000
      7386        61  PMPE      C29            33.5390562606       -4.3388610501        5.2029760745  MEMB      61              0.0000000000
      7387        61  PMPE      H9R            32.7755726863       -3.5591498526        5.4114558147  MEMB      61              0.0000000000
      7388        61  PMPE      C217           32.9203410583       -5.6384715145        4.6498105119  MEMB      61              0.0000000000
      7389        61  PMPE      H17R           31.8673259447       -5.5650693259        4.4076112872  MEMB      61              0.0000000000
      7390        61  PMPE      H17S           33.4470589907       -6.5460470055        4.9176990967  MEMB      61              0.0000000000
      7391        61  PMPE      C210           33.7691397339       -4.6730105056        3.7672494388  MEMB      61              0.0000000000
      7392        61  PMPE      H10R           33.1669171845       -4.0387273415        3.0821699446  MEMB      61              0.0000000000
      7393        61  PMPE      C211           35.0928537966       -5.2011694322        3.2928165070  MEMB      61              0.0000000000
      7394        61  PMPE      H11R           35.3722624222       -6.0841114672        3.9065472402  MEMB      61              0.0000000000
      7395        61  PMPE      H11S           35.8686638632       -4.4159187557        3.4185985762  MEMB      61              0.0000000000
      7396        61  PMPE      C212           35.1646147720       -5.3864803238        1.7597255962  MEMB      61              0.0000000000
      7397        61  PMPE      H12R           35.1169199502       -4.3414530443        1.3856067085  MEMB      61              0.0000000000
      7398        61  PMPE      H12S           34.2223371923       -5.8546491398        1.4030025208  MEMB      61              0.0000000000
      7399        61  PMPE      C213           36.4407138236       -6.0614262796        1.2639494551  MEMB      61              0.0000000000
      7400        61  PMPE      H13R           36.7835329631       -6.9679331710        1.8071260827  MEMB      61              0.0000000000
      7401        61  PMPE      H13S           37.2625606901       -5.3181314947        1.3439607741  MEMB      61              0.0000000000
      7402        61  PMPE      C214           36.3899163504       -6.5224393594       -0.2297362114  MEMB      61              0.0000000000
      7403        61  PMPE      H14R           36.2553133676       -5.5720856565       -0.7892271135  MEMB      61              0.0000000000
      7404        61  PMPE      H14S           35.4787373551       -7.1330944364       -0.4062979305  MEMB      61              0.0000000000
      7405        61  PMPE      C215           37.5574874481       -7.2453650200       -0.8012556604  MEMB      61              0.0000000000
      7406        61  PMPE      H15R           37.3150014955       -8.1774499431       -1.3550958289  MEMB      61              0.0000000000
      7407        61  PMPE      H15S           38.1846529853       -7.5342327807        0.0691107501  MEMB      61              0.0000000000
      7408        61  PMPE      C216           38.4213710885       -6.4093032071       -1.7873495407  MEMB      61              0.0000000000
      7409        61  PMPE      H16R           38.0901250403       -6.5035674988       -2.8436227759  MEMB      61              0.0000000000
      7410        61  PMPE      H16S           38.4439525412       -5.3358106487       -1.5019996925  MEMB      61              0.0000000000
      7411        61  PMPE      H16T           39.4893803337       -6.6914999181       -1.6688490494  MEMB      61              0.0000000000
      7412        61  PMPE      C33            32.3105585393        0.9404176197       14.2199513432  MEMB      61              0.0000000000
      7413        61  PMPE      H3X            32.2388465719        1.4911921780       15.1821497765  MEMB      61              0.0000000000
      7414        61  PMPE      H3Y            31.2859057317        1.0082013758       13.7959071691  MEMB      61              0.0000000000
      7415        61  PMPE      C34            33.2065890269        1.8835765777       13.4007023888  MEMB      61              0.0000000000
      7416        61  PMPE      H4X            34.1413953361        2.1222715941       13.9515954221  MEMB      61              0.0000000000
      7417        61  PMPE      H4Y            32.6712064371        2.8483787505       13.2709198636  MEMB      61              0.0000000000
      7418        61  PMPE      C35            33.6511688816        1.2365451378       12.0326415981  MEMB      61              0.0000000000
      7419        61  PMPE      H5X            34.0881758066        0.2624756557       12.3401066248  MEMB      61              0.0000000000
      7420        61  PMPE      H5Y            34.3743717639        1.9025768686       11.5152438884  MEMB      61              0.0000000000
      7421        61  PMPE      C36            32.6317812291        1.0193638403       10.9396453396  MEMB      61              0.0000000000
      7422        61  PMPE      H6X            32.1319121325        1.9804027752       10.6929551692  MEMB      61              0.0000000000
      7423        61  PMPE      H6Y            31.8963473663        0.2943334523       11.3492656937  MEMB      61              0.0000000000
      7424        61  PMPE      C37            33.1525317715        0.3368285205        9.6462711355  MEMB      61              0.0000000000
      7425        61  PMPE      H7X            32.2778204672        0.2625831868        8.9653240487  MEMB      61              0.0000000000
      7426        61  PMPE      H7Y            33.6037541701       -0.6400751137        9.9226378434  MEMB      61              0.0000000000
      7427        61  PMPE      C38            34.1866376922        1.2227050683        8.8835123356  MEMB      61              0.0000000000
      7428        61  PMPE      H8X            35.1355360638        1.4378440293        9.4198226605  MEMB      61              0.0000000000
      7429        61  PMPE      H8Y            33.6731443193        2.1944302250        8.7210450822  MEMB      61              0.0000000000
      7430        61  PMPE      C39            34.6844058755        0.5568910418        7.6142766853  MEMB      61              0.0000000000
      7431        61  PMPE      H9X            33.8847306983        0.5504068542        6.8430447052  MEMB      61              0.0000000000
      7432        61  PMPE      H9Y            34.8306412341       -0.5336081728        7.7683788770  MEMB      61              0.0000000000
      7433        61  PMPE      C310           35.8453892228        1.2469292668        6.9711567544  MEMB      61              0.0000000000
      7434        61  PMPE      H10X           36.7424012593        1.3138276080        7.6232415963  MEMB      61              0.0000000000
      7435        61  PMPE      H10Y           35.5976407027        2.2924272006        6.6885335585  MEMB      61              0.0000000000
      7436        61  PMPE      C311           36.3064855145        0.6295129601        5.5495275185  MEMB      61              0.0000000000
      7437        61  PMPE      H11X           37.1419304411        1.2205078352        5.1170025601  MEMB      61              0.0000000000
      7438        61  PMPE      H11Y           35.4063974709        0.7031869950        4.9024302832  MEMB      61              0.0000000000
      7439        61  PMPE      C312           36.6681917029       -0.8081666566        5.6854642686  MEMB      61              0.0000000000
      7440        61  PMPE      H12X           35.8009782162       -1.4220877888        6.0100605713  MEMB      61              0.0000000000
      7441        61  PMPE      H12Y           37.4078465691       -1.0592332111        6.4755258765  MEMB      61              0.0000000000
      7442        61  PMPE      C313           37.2542230632       -1.4180597977        4.4000575406  MEMB      61              0.0000000000
      7443        61  PMPE      H13X           37.5761339382       -2.4726938804        4.5358567610  MEMB      61              0.0000000000
      7444        61  PMPE      H13Y           38.1582985937       -0.8080322870        4.1883152259  MEMB      61              0.0000000000
      7445        61  PMPE      C314           36.3673894981       -1.3601273365        3.1514816828  MEMB      61              0.0000000000
      7446        61  PMPE      H14X           36.3204930022       -0.2786269287        2.9015244598  MEMB      61              0.0000000000
      7447        61  PMPE      H14Y           35.3869168043       -1.7357436464        3.5146725169  MEMB      61              0.0000000000
      7448        61  PMPE      C315           36.9670320559       -2.0534982350        1.8592268327  MEMB      61              0.0000000000
      7449        61  PMPE      H15X           36.2117754137       -1.6470724617        1.1530218650  MEMB      61              0.0000000000
      7450        61  PMPE      H15Y           36.6843809817       -3.1171720994        2.0109746120  MEMB      61              0.0000000000
      7451        61  PMPE      C316           38.3796200699       -1.7701405620        1.5292895998  MEMB      61              0.0000000000
      7452        61  PMPE      H16X           38.5301505245       -1.9376484432        0.4413547094  MEMB      61              0.0000000000
      7453        61  PMPE      H16Y           39.0909571703       -2.4747875933        2.0107387082  MEMB      61              0.0000000000
      7454        61  PMPE      H16Z           38.6116745032       -0.7449433337        1.8890696370  MEMB      61              0.0000000000
      7455        62  PMPG      C13            11.0427783884      -35.4238888234       20.1941468699  MEMB      62              0.0000000000
      7456        62  PMPG      H13A           11.9971860449      -35.5032158214       20.7572936608  MEMB      62              0.0000000000
      7457        62  PMPG      H13B           10.4975727879      -36.3918461859       20.1827134264  MEMB      62              0.0000000000
      7458        62  PMPG      OC3            11.4216451647      -35.1688377265       18.8371475534  MEMB      62              0.0000000000
      7459        62  PMPG      HO3            10.7808972047      -34.5143181647       18.5496648004  MEMB      62              0.0000000000
      7460        62  PMPG      C12            10.1675770474      -34.2509549012       20.7194376031  MEMB      62              0.0000000000
      7461        62  PMPG      H12A           10.1988039707      -34.2874709677       21.8332017146  MEMB      62              0.0000000000
      7462        62  PMPG      OC2             8.8105685320      -34.4281590094       20.3105764003  MEMB      62              0.0000000000
      7463        62  PMPG      HO2             8.3883207404      -33.5810828318       20.5730370487  MEMB      62              0.0000000000
      7464        62  PMPG      C11            10.7166018884      -32.8786866994       20.2541481780  MEMB      62              0.0000000000
      7465        62  PMPG      H11A           11.8186217686      -33.0188456635       20.2692647175  MEMB      62              0.0000000000
      7466        62  PMPG      H11B           10.3354454404      -32.0110945236       20.8340831401  MEMB      62              0.0000000000
      7467        62  PMPG      P              11.3193242448      -31.8196293678       17.9276275613  MEMB      62              0.0000000000
      7468        62  PMPG      O13            12.4074567564      -32.6903602016       17.4120749897  MEMB      62              0.0000000000
      7469        62  PMPG      O14            11.7786397064      -30.5898578559       18.6230812008  MEMB      62              0.0000000000
      7470        62  PMPG      O11            10.2964049385      -31.5086823044       16.7978792905  MEMB      62              0.0000000000
      7471        62  PMPG      O12            10.3727993320      -32.6349401107       18.9238803494  MEMB      62              0.0000000000
      7472        62  PMPG      C1              9.1344520360      -32.2895215363       16.4434050568  MEMB      62              0.0000000000
      7473        62  PMPG      HA              8.7523949102      -31.9528984573       15.4559648558  MEMB      62              0.0000000000
      7474        62  PMPG      HB              8.4007126172      -32.1371542158       17.2636072645  MEMB      62              0.0000000000
      7475        62  PMPG      C2              9.4145343474      -33.7938120913       16.0806364013  MEMB      62              0.0000000000
      7476        62  PMPG      HS              9.4991849453      -34.3629841016       17.0310038735  MEMB      62              0.0000000000
      7477        62  PMPG      O21            10.5372010655      -33.7455426053       15.3160448563  MEMB      62              0.0000000000
      7478        62  PMPG      C21            11.0911215960      -34.9383760867       15.1815261403  MEMB      62              0.0000000000
      7479        62  PMPG      O22            10.8101727313      -35.9160213300       15.8600011059  MEMB      62              0.0000000000
      7480        62  PMPG      C22            12.0738848241      -34.8012950060       13.9706444464  MEMB      62              0.0000000000
      7481        62  PMPG      H2R            12.4311921245      -33.7495756101       13.9474338820  MEMB      62              0.0000000000
      7482        62  PMPG      H2S            11.5638629736      -34.9912972810       13.0020897686  MEMB      62              0.0000000000
      7483        62  PMPG      C3              8.1293217660      -34.3725668530       15.3397299854  MEMB      62              0.0000000000
      7484        62  PMPG      HX              7.3582578947      -34.3539129168       16.1393756202  MEMB      62              0.0000000000
      7485        62  PMPG      HY              8.4040065973      -35.4428056448       15.2237196799  MEMB      62              0.0000000000
      7486        62  PMPG      O31             7.7788797977      -33.7586877333       14.0439255564  MEMB      62              0.0000000000
      7487        62  PMPG      C31             7.7389469057      -34.5333994336       12.9786594276  MEMB      62              0.0000000000
      7488        62  PMPG      O32             7.5678343523      -35.7311971339       12.9959867135  MEMB      62              0.0000000000
      7489        62  PMPG      C32             7.9782427370      -33.7507192343       11.6099371542  MEMB      62              0.0000000000
      7490        62  PMPG      H2X             8.6511253770      -34.3906772651       11.0000157020  MEMB      62              0.0000000000
      7491        62  PMPG      H2Y             8.4488026737      -32.7702277600       11.8369413634  MEMB      62              0.0000000000
      7492        62  PMPG      C23            13.1761655973      -35.8246759957       14.1525569439  MEMB      62              0.0000000000
      7493        62  PMPG      H3R            13.5411066092      -35.8849064756       15.2001787074  MEMB      62              0.0000000000
      7494        62  PMPG      H3S            14.0507804348      -35.5137822350       13.5420531603  MEMB      62              0.0000000000
      7495        62  PMPG      C24            12.8758806080      -37.2612555752       13.6803101041  MEMB      62              0.0000000000
      7496        62  PMPG      H4R            12.1893838771      -37.7079550799       14.4309785385  MEMB      62              0.0000000000
      7497        62  PMPG      H4S            13.8008831401      -37.8675811585       13.7854799234  MEMB      62              0.0000000000
      7498        62  PMPG      C25            12.3533751681      -37.4123084324       12.2214005887  MEMB      62              0.0000000000
      7499        62  PMPG      H5R            11.3156837781      -37.0314897145       12.1096196630  MEMB      62              0.0000000000
      7500        62  PMPG      H5S            12.3380617125      -38.4967461504       11.9804008277  MEMB      62              0.0000000000
      7501        62  PMPG      C26            13.1737757340      -36.7351472990       11.1100618554  MEMB      62              0.0000000000
      7502        62  PMPG      H6R            14.2389377860      -37.0335312973       11.2135871684  MEMB      62              0.0000000000
      7503        62  PMPG      H6S            13.0289790804      -35.6556206506       11.3290985012  MEMB      62              0.0000000000
      7504        62  PMPG      C27            12.8864972779      -37.1462423793        9.6808205737  MEMB      62              0.0000000000
      7505        62  PMPG      H7R            11.8238842437      -36.8699991224        9.5109268022  MEMB      62              0.0000000000
      7506        62  PMPG      H7S            12.9435606586      -38.2556469306        9.6639163396  MEMB      62              0.0000000000
      7507        62  PMPG      C28            13.8509278183      -36.4862945403        8.6637710332  MEMB      62              0.0000000000
      7508        62  PMPG      H8R            13.9145738175      -36.8664539478        7.6217782384  MEMB      62              0.0000000000
      7509        62  PMPG      H8S            14.8318963376      -36.6144283337        9.1693437514  MEMB      62              0.0000000000
      7510        62  PMPG      C29            13.6625953336      -34.9262312111        8.5536890229  MEMB      62              0.0000000000
      7511        62  PMPG      H9R            13.9406692824      -34.4259835522        9.5059227507  MEMB      62              0.0000000000
      7512        62  PMPG      C217           13.8796728201      -34.1946449484        7.2489315329  MEMB      62              0.0000000000
      7513        62  PMPG      H17R           14.2913139730      -33.2119822744        7.4433905623  MEMB      62              0.0000000000
      7514        62  PMPG      H17S           14.3128310422      -34.9020606153        6.5526374591  MEMB      62              0.0000000000
      7515        62  PMPG      C210           12.4319262963      -34.4112971663        7.7398399469  MEMB      62              0.0000000000
      7516        62  PMPG      H10R           11.9514274901      -33.6680277242        8.4113997138  MEMB      62              0.0000000000
      7517        62  PMPG      C211           11.5133747197      -35.3767405661        6.9623365346  MEMB      62              0.0000000000
      7518        62  PMPG      H11R           12.1317380445      -36.0253548101        6.3056423908  MEMB      62              0.0000000000
      7519        62  PMPG      H11S           10.9151999488      -36.1225499598        7.5282660269  MEMB      62              0.0000000000
      7520        62  PMPG      C212           10.6193113540      -34.5521068422        6.0080720738  MEMB      62              0.0000000000
      7521        62  PMPG      H12R           11.2541651739      -33.8501846309        5.4261897086  MEMB      62              0.0000000000
      7522        62  PMPG      H12S            9.9401570209      -33.9508692755        6.6496200387  MEMB      62              0.0000000000
      7523        62  PMPG      C213            9.7371929914      -35.5022537100        5.1317155093  MEMB      62              0.0000000000
      7524        62  PMPG      H13R            8.6662478078      -35.3224621807        5.3663909488  MEMB      62              0.0000000000
      7525        62  PMPG      H13S            9.9498974195      -36.5356498111        5.4798106741  MEMB      62              0.0000000000
      7526        62  PMPG      C214           10.0829125265      -35.3973529366        3.5918015921  MEMB      62              0.0000000000
      7527        62  PMPG      H14R            9.5231478188      -36.1514931488        2.9982890644  MEMB      62              0.0000000000
      7528        62  PMPG      H14S           11.1935535557      -35.3787063381        3.5705938348  MEMB      62              0.0000000000
      7529        62  PMPG      C215            9.5715510046      -34.0504050236        2.9600158528  MEMB      62              0.0000000000
      7530        62  PMPG      H15R            9.6671319988      -33.8721143092        1.8675866824  MEMB      62              0.0000000000
      7531        62  PMPG      H15S           10.2575805107      -33.2574936183        3.3274054176  MEMB      62              0.0000000000
      7532        62  PMPG      C216            8.1103815307      -33.6637279191        3.2995513063  MEMB      62              0.0000000000
      7533        62  PMPG      H16R            7.4227351799      -34.3744214353        2.7932128909  MEMB      62              0.0000000000
      7534        62  PMPG      H16S            7.8444235775      -32.6845899234        2.8469194672  MEMB      62              0.0000000000
      7535        62  PMPG      H16T            7.9103488705      -33.8174037135        4.3815363764  MEMB      62              0.0000000000
      7536        62  PMPG      C33             6.6540895981      -33.5669802971       10.8961109723  MEMB      62              0.0000000000
      7537        62  PMPG      H3X             6.0999486503      -32.9425760361       11.6291646742  MEMB      62              0.0000000000
      7538        62  PMPG      H3Y             6.2744028359      -34.5888583281       10.6818111773  MEMB      62              0.0000000000
      7539        62  PMPG      C34             6.9044156059      -32.7311792295        9.5690279175  MEMB      62              0.0000000000
      7540        62  PMPG      H4X             6.0485097761      -32.9912710187        8.9101672043  MEMB      62              0.0000000000
      7541        62  PMPG      H4Y             7.6960627371      -33.1576341643        8.9165312698  MEMB      62              0.0000000000
      7542        62  PMPG      C35             7.1589075886      -31.2462496610        9.8071188392  MEMB      62              0.0000000000
      7543        62  PMPG      H5X             7.7224460270      -31.1459681958       10.7593217739  MEMB      62              0.0000000000
      7544        62  PMPG      H5Y             6.1549418683      -30.7914034516        9.9467214534  MEMB      62              0.0000000000
      7545        62  PMPG      C36             7.8436985004      -30.4888224981        8.6767471812  MEMB      62              0.0000000000
      7546        62  PMPG      H6X             7.6725166981      -29.4210552303        8.9314843116  MEMB      62              0.0000000000
      7547        62  PMPG      H6Y             7.4907947235      -30.6978379134        7.6442289407  MEMB      62              0.0000000000
      7548        62  PMPG      C37             9.3211725877      -30.7870412279        8.7700847773  MEMB      62              0.0000000000
      7549        62  PMPG      H7X             9.4157319597      -31.8896855394        8.8678338076  MEMB      62              0.0000000000
      7550        62  PMPG      H7Y             9.7992393123      -30.3426174007        9.6691173106  MEMB      62              0.0000000000
      7551        62  PMPG      C38            10.0027611002      -30.3456396754        7.4985323237  MEMB      62              0.0000000000
      7552        62  PMPG      H8X             9.8746509945      -29.2529874597        7.3435493296  MEMB      62              0.0000000000
      7553        62  PMPG      H8Y             9.5815835591      -30.8975508185        6.6311668608  MEMB      62              0.0000000000
      7554        62  PMPG      C39            11.5331468832      -30.5205632783        7.4585937985  MEMB      62              0.0000000000
      7555        62  PMPG      H9X            11.7594738731      -31.6075226285        7.4183916572  MEMB      62              0.0000000000
      7556        62  PMPG      H9Y            12.0225385091      -30.2400902363        8.4157520547  MEMB      62              0.0000000000
      7557        62  PMPG      C310           12.1965569005      -29.9147464113        6.2380281685  MEMB      62              0.0000000000
      7558        62  PMPG      H10X           13.2943701321      -29.9397774566        6.4068491661  MEMB      62              0.0000000000
      7559        62  PMPG      H10Y           11.8834696711      -28.8640384665        6.0582761160  MEMB      62              0.0000000000
      7560        62  PMPG      C311           11.9659638811      -30.8585647885        4.9859837558  MEMB      62              0.0000000000
      7561        62  PMPG      H11X           10.9731777578      -30.5308636372        4.6100731045  MEMB      62              0.0000000000
      7562        62  PMPG      H11Y           12.1404070582      -31.8810300384        5.3840481850  MEMB      62              0.0000000000
      7563        62  PMPG      C312           12.8980710513      -30.7522047092        3.8103237648  MEMB      62              0.0000000000
      7564        62  PMPG      H12X           13.9756086998      -30.8521479857        4.0618097546  MEMB      62              0.0000000000
      7565        62  PMPG      H12Y           12.7711098769      -29.6849340536        3.5290141548  MEMB      62              0.0000000000
      7566        62  PMPG      C313           12.7376520923      -31.7067046043        2.6100391512  MEMB      62              0.0000000000
      7567        62  PMPG      H13X           11.6743067974      -31.6130323528        2.3020731873  MEMB      62              0.0000000000
      7568        62  PMPG      H13Y           12.8483699726      -32.7287758237        3.0312678952  MEMB      62              0.0000000000
      7569        62  PMPG      C314           13.6752952759      -31.4730852288        1.4912294446  MEMB      62              0.0000000000
      7570        62  PMPG      H14X           14.7129752388      -31.3588045340        1.8713364317  MEMB      62              0.0000000000
      7571        62  PMPG      H14Y           13.3838422068      -30.5418331578        0.9600550826  MEMB      62              0.0000000000
      7572        62  PMPG      C315           13.6691836680      -32.6383592260        0.4476201087  MEMB      62              0.0000000000
      7573        62  PMPG      H15X           12.6114809222      -32.9621843542        0.3440688651  MEMB      62              0.0000000000
      7574        62  PMPG      H15Y           14.2467366794      -33.4277187130        0.9745591142  MEMB      62              0.0000000000
      7575        62  PMPG      C316           14.3735131552      -32.3586372289       -0.8450457613  MEMB      62              0.0000000000
      7576        62  PMPG      H16X           15.4512461597      -32.1302785766       -0.7012953305  MEMB      62              0.0000000000
      7577        62  PMPG      H16Y           13.8359702612      -31.5026700023       -1.3062277663  MEMB      62              0.0000000000
      7578        62  PMPG      H16Z           14.3809705589      -33.2399700195       -1.5214471192  MEMB      62              0.0000000000
      7579        63  POPE      N              -3.0475754013      -32.9781190344       16.7156702472  MEMB      63              0.0000000000
      7580        63  POPE      HN1            -2.8205391652      -33.9769538715       16.8956249388  MEMB      63              0.0000000000
      7581        63  POPE      HN2            -3.4169908993      -32.9161004944       15.7454712853  MEMB      63              0.0000000000
      7582        63  POPE      HN3            -2.1754555527      -32.4169757665       16.7939330077  MEMB      63              0.0000000000
      7583        63  POPE      C12            -4.2728852229      -32.7303809973       17.6052775579  MEMB      63              0.0000000000
      7584        63  POPE      H12A           -5.1088532053      -33.1660612892       17.0173480204  MEMB      63              0.0000000000
      7585        63  POPE      H12B           -4.3874949548      -31.6258349016       17.5711713220  MEMB      63              0.0000000000
      7586        63  POPE      C11            -4.0422091885      -33.3362484648       18.9519477666  MEMB      63              0.0000000000
      7587        63  POPE      H11A           -4.7705825776      -33.0263797390       19.7315467989  MEMB      63              0.0000000000
      7588        63  POPE      H11B           -3.0804067753      -32.8646771370       19.2466975985  MEMB      63              0.0000000000
      7589        63  POPE      P              -4.6702959877      -35.6573986985       19.8280502510  MEMB      63              0.0000000000
      7590        63  POPE      O13            -6.1029804348      -35.5988233693       19.5373444656  MEMB      63              0.0000000000
      7591        63  POPE      O14            -4.1207708940      -35.4202265215       21.1949920987  MEMB      63              0.0000000000
      7592        63  POPE      O11            -4.1493095659      -37.0831829567       19.3799863073  MEMB      63              0.0000000000
      7593        63  POPE      O12            -3.8078803015      -34.7888719757       18.7867313059  MEMB      63              0.0000000000
      7594        63  POPE      C1             -2.7980433029      -37.3928867328       19.4665415924  MEMB      63              0.0000000000
      7595        63  POPE      HA             -2.7534013143      -38.5020672851       19.5117788017  MEMB      63              0.0000000000
      7596        63  POPE      HB             -2.2788357670      -36.9215186972       20.3282588740  MEMB      63              0.0000000000
      7597        63  POPE      C2             -2.0028511237      -37.0249082373       18.1731411231  MEMB      63              0.0000000000
      7598        63  POPE      HS             -1.7394954026      -35.9477630494       18.1044171563  MEMB      63              0.0000000000
      7599        63  POPE      O21            -2.7268035799      -37.5479397810       17.0110009606  MEMB      63              0.0000000000
      7600        63  POPE      C21            -2.8993710706      -36.8335679240       15.8709598441  MEMB      63              0.0000000000
      7601        63  POPE      O22            -2.6058450009      -35.6880273387       15.6849792431  MEMB      63              0.0000000000
      7602        63  POPE      C22            -3.7156445148      -37.6391648388       14.9268562420  MEMB      63              0.0000000000
      7603        63  POPE      H2R            -4.7132901818      -37.7790359564       15.3953219835  MEMB      63              0.0000000000
      7604        63  POPE      H2S            -3.3193244015      -38.6664542287       14.7787757076  MEMB      63              0.0000000000
      7605        63  POPE      C3             -0.6092133978      -37.7862684713       18.3285253684  MEMB      63              0.0000000000
      7606        63  POPE      HX             -0.8658675955      -38.8671376708       18.3154325845  MEMB      63              0.0000000000
      7607        63  POPE      HY             -0.1611036625      -37.6531071191       19.3363879874  MEMB      63              0.0000000000
      7608        63  POPE      O31             0.3616424621      -37.4960520688       17.3231403559  MEMB      63              0.0000000000
      7609        63  POPE      C31             0.2105358748      -38.1600999179       16.2243405779  MEMB      63              0.0000000000
      7610        63  POPE      O32            -0.5928646201      -39.0369604009       15.9576290877  MEMB      63              0.0000000000
      7611        63  POPE      C32             0.9778054802      -37.3573935700       15.1644640352  MEMB      63              0.0000000000
      7612        63  POPE      H2X             2.0235615182      -37.2087751286       15.5088880756  MEMB      63              0.0000000000
      7613        63  POPE      H2Y             0.4434084286      -36.3854103789       15.1013035545  MEMB      63              0.0000000000
      7614        63  POPE      C23            -3.9926152136      -36.7694177512       13.6748762027  MEMB      63              0.0000000000
      7615        63  POPE      H3R            -3.0778098591      -36.5824573605       13.0727985225  MEMB      63              0.0000000000
      7616        63  POPE      H3S            -4.4164804394      -35.7763113150       13.9364082330  MEMB      63              0.0000000000
      7617        63  POPE      C24            -4.9754915764      -37.4679715740       12.7416326533  MEMB      63              0.0000000000
      7618        63  POPE      H4R            -5.9858759065      -37.5176799136       13.2009510408  MEMB      63              0.0000000000
      7619        63  POPE      H4S            -4.6951946492      -38.5019232824       12.4471862640  MEMB      63              0.0000000000
      7620        63  POPE      C25            -5.2262604743      -36.6534152482       11.5092781201  MEMB      63              0.0000000000
      7621        63  POPE      H5R            -4.7851046005      -35.6407976020       11.6288932464  MEMB      63              0.0000000000
      7622        63  POPE      H5S            -6.3299710909      -36.5306098456       11.4766828982  MEMB      63              0.0000000000
      7623        63  POPE      C26            -4.7799210276      -37.2175623900       10.1777282051  MEMB      63              0.0000000000
      7624        63  POPE      H6R            -5.2444833522      -38.2241456437       10.1049746726  MEMB      63              0.0000000000
      7625        63  POPE      H6S            -3.6801617323      -37.3398008510       10.2772698416  MEMB      63              0.0000000000
      7626        63  POPE      C27            -5.1857367468      -36.2511288057        9.0350436845  MEMB      63              0.0000000000
      7627        63  POPE      H7R            -4.6407276949      -35.2930279353        9.1740713452  MEMB      63              0.0000000000
      7628        63  POPE      H7S            -6.2633185582      -36.0750091437        9.2402751888  MEMB      63              0.0000000000
      7629        63  POPE      C28            -4.9154047557      -36.8632479990        7.6590781472  MEMB      63              0.0000000000
      7630        63  POPE      H8R            -5.2118016403      -37.9236322248        7.5105678597  MEMB      63              0.0000000000
      7631        63  POPE      H8S            -3.8190947181      -37.0383444491        7.6170506229  MEMB      63              0.0000000000
      7632        63  POPE      C29            -5.2957678469      -35.9460114144        6.5098017759  MEMB      63              0.0000000000
      7633        63  POPE      H91            -6.3551307185      -35.6595975491        6.4341888332  MEMB      63              0.0000000000
      7634        63  POPE      C210           -4.4872010527      -35.4140003240        5.5931803704  MEMB      63              0.0000000000
      7635        63  POPE      H101           -5.0089495777      -34.5724176869        5.1141008175  MEMB      63              0.0000000000
      7636        63  POPE      C211           -2.9995618392      -35.5534660166        5.4591615170  MEMB      63              0.0000000000
      7637        63  POPE      H11R           -2.5332703019      -35.7745870599        6.4430312102  MEMB      63              0.0000000000
      7638        63  POPE      H11S           -2.4928547880      -34.6173475327        5.1409617339  MEMB      63              0.0000000000
      7639        63  POPE      C212           -2.8275793477      -36.5213816149        4.3144709126  MEMB      63              0.0000000000
      7640        63  POPE      H12R           -1.7518620811      -36.7835947012        4.2228338578  MEMB      63              0.0000000000
      7641        63  POPE      H12S           -3.0974737982      -35.9744149796        3.3858674972  MEMB      63              0.0000000000
      7642        63  POPE      C213           -3.3443866609      -37.9489512190        4.2185922714  MEMB      63              0.0000000000
      7643        63  POPE      H13R           -4.4421849445      -37.9055697133        4.3837512556  MEMB      63              0.0000000000
      7644        63  POPE      H13S           -2.9538331325      -38.6778950515        4.9605017696  MEMB      63              0.0000000000
      7645        63  POPE      C214           -3.1360617097      -38.5835512005        2.7631681620  MEMB      63              0.0000000000
      7646        63  POPE      H14R           -2.1272289448      -38.3928913341        2.3386358319  MEMB      63              0.0000000000
      7647        63  POPE      H14S           -3.8859950464      -38.1009436816        2.1005890575  MEMB      63              0.0000000000
      7648        63  POPE      C215           -3.3019518376      -40.1084773884        2.6838847004  MEMB      63              0.0000000000
      7649        63  POPE      H15R           -4.0616470510      -40.4266111602        3.4295215955  MEMB      63              0.0000000000
      7650        63  POPE      H15S           -2.3818904161      -40.5975709998        3.0693656258  MEMB      63              0.0000000000
      7651        63  POPE      C216           -3.6962059449      -40.6178195927        1.2823945077  MEMB      63              0.0000000000
      7652        63  POPE      H16R           -2.7794530820      -40.4562004347        0.6759581242  MEMB      63              0.0000000000
      7653        63  POPE      H16S           -4.5334647398      -40.0027597514        0.8886681270  MEMB      63              0.0000000000
      7654        63  POPE      C217           -3.9344535009      -42.0646942508        1.1822448584  MEMB      63              0.0000000000
      7655        63  POPE      H17R           -3.0651211048      -42.6607993923        1.5333019240  MEMB      63              0.0000000000
      7656        63  POPE      H17S           -3.9406168165      -42.2640079112        0.0892865472  MEMB      63              0.0000000000
      7657        63  POPE      C218           -5.2008596443      -42.3915659223        1.9249769994  MEMB      63              0.0000000000
      7658        63  POPE      H18R           -5.1665580582      -42.3630502607        3.0350810871  MEMB      63              0.0000000000
      7659        63  POPE      H18S           -5.5245934369      -43.4107874341        1.6238023608  MEMB      63              0.0000000000
      7660        63  POPE      H18T           -6.0660667285      -41.7446279782        1.6657304347  MEMB      63              0.0000000000
      7661        63  POPE      C33             0.9673154805      -38.1490643457       13.8311609839  MEMB      63              0.0000000000
      7662        63  POPE      H3X             1.4569881960      -39.1462051720       13.8470306755  MEMB      63              0.0000000000
      7663        63  POPE      H3Y             1.5540977596      -37.4853037335       13.1607662212  MEMB      63              0.0000000000
      7664        63  POPE      C34            -0.4180568595      -38.2406003269       13.1284350551  MEMB      63              0.0000000000
      7665        63  POPE      H4X            -1.1485570824      -37.5035818743       13.5252906281  MEMB      63              0.0000000000
      7666        63  POPE      H4Y            -0.7791820911      -39.2360014851       13.4647178897  MEMB      63              0.0000000000
      7667        63  POPE      C35            -0.4224931705      -38.5166423524       11.6046335383  MEMB      63              0.0000000000
      7668        63  POPE      H5X            -1.4894987793      -38.6188101726       11.3124315271  MEMB      63              0.0000000000
      7669        63  POPE      H5Y             0.1231570126      -39.4625354889       11.4000034780  MEMB      63              0.0000000000
      7670        63  POPE      C36             0.0410445921      -37.3568677377       10.7607925199  MEMB      63              0.0000000000
      7671        63  POPE      H6X             1.1248446171      -37.1577812506       10.9024355262  MEMB      63              0.0000000000
      7672        63  POPE      H6Y            -0.5001249024      -36.4761047188       11.1678713591  MEMB      63              0.0000000000
      7673        63  POPE      C37            -0.1802931272      -37.4179255730        9.2469015390  MEMB      63              0.0000000000
      7674        63  POPE      H7X             0.1622305493      -36.4375268029        8.8521650683  MEMB      63              0.0000000000
      7675        63  POPE      H7Y            -1.2273025242      -37.5773335031        8.9112208633  MEMB      63              0.0000000000
      7676        63  POPE      C38             0.7699404933      -38.4503121168        8.5371892069  MEMB      63              0.0000000000
      7677        63  POPE      H8X             0.7302561776      -39.3570154906        9.1779973962  MEMB      63              0.0000000000
      7678        63  POPE      H8Y             1.8288921653      -38.1362959051        8.6569230861  MEMB      63              0.0000000000
      7679        63  POPE      C39             0.3446987969      -38.7968310240        7.0782287831  MEMB      63              0.0000000000
      7680        63  POPE      H9X            -0.7586948412      -38.8822214503        7.1759629972  MEMB      63              0.0000000000
      7681        63  POPE      H9Y             0.7813783000      -39.7811130624        6.8046961470  MEMB      63              0.0000000000
      7682        63  POPE      C310            0.6509074545      -37.7675814932        5.9912887102  MEMB      63              0.0000000000
      7683        63  POPE      H10X            0.3109427528      -36.7333976871        6.2131182396  MEMB      63              0.0000000000
      7684        63  POPE      H10Y            0.1294498843      -38.1567798703        5.0907729360  MEMB      63              0.0000000000
      7685        63  POPE      C311            2.0812135981      -37.4708222888        5.5819440803  MEMB      63              0.0000000000
      7686        63  POPE      H11X            2.4815429009      -38.4365582320        5.2058971078  MEMB      63              0.0000000000
      7687        63  POPE      H11Y            2.6259641188      -37.0818098824        6.4686444557  MEMB      63              0.0000000000
      7688        63  POPE      C312            2.1059625929      -36.4203060349        4.4881557956  MEMB      63              0.0000000000
      7689        63  POPE      H12X            3.1747226958      -36.3500394722        4.1929686116  MEMB      63              0.0000000000
      7690        63  POPE      H12Y            1.7401568456      -35.4373312219        4.8545822537  MEMB      63              0.0000000000
      7691        63  POPE      C313            1.2997828734      -36.7196505874        3.1732791169  MEMB      63              0.0000000000
      7692        63  POPE      H13X            1.2563830472      -35.7621940802        2.6113946139  MEMB      63              0.0000000000
      7693        63  POPE      H13Y            0.2698280435      -36.9762403472        3.5014183468  MEMB      63              0.0000000000
      7694        63  POPE      C314            1.8747055083      -37.9159617670        2.3160559751  MEMB      63              0.0000000000
      7695        63  POPE      H14X            1.9573698820      -38.8999923771        2.8251444374  MEMB      63              0.0000000000
      7696        63  POPE      H14Y            2.8979918630      -37.5419495449        2.0985233961  MEMB      63              0.0000000000
      7697        63  POPE      C315            1.0430297132      -38.1240204500        1.0665526132  MEMB      63              0.0000000000
      7698        63  POPE      H15X            1.2542097221      -37.2819814475        0.3732310748  MEMB      63              0.0000000000
      7699        63  POPE      H15Y           -0.0458791596      -38.2605095475        1.2396687105  MEMB      63              0.0000000000
      7700        63  POPE      C316            1.5229912729      -39.3445018838        0.2529739227  MEMB      63              0.0000000000
      7701        63  POPE      H16X            0.8760830927      -39.4773197758       -0.6404406896  MEMB      63              0.0000000000
      7702        63  POPE      H16Y            1.5199860438      -40.2427156014        0.9068268379  MEMB      63              0.0000000000
      7703        63  POPE      H16Z            2.5730832284      -39.1029404078       -0.0177199872  MEMB      63              0.0000000000
      7704        64  PVCL2     C3             22.9777178877      -27.8716897203       18.2283900780  MEMB      64              0.0000000000
      7705        64  PVCL2     HG31           23.7240407273      -27.0558409129       18.1201589361  MEMB      64              0.0000000000
      7706        64  PVCL2     HG32           22.8049609670      -28.1048184435       17.1559502859  MEMB      64              0.0000000000
      7707        64  PVCL2     P3             20.6485300002      -26.6856223362       18.2243863399  MEMB      64              0.0000000000
      7708        64  PVCL2     OP33           19.3873109108      -26.8580351753       18.9662264695  MEMB      64              0.0000000000
      7709        64  PVCL2     OP34           20.6977004902      -26.8436391314       16.7429401366  MEMB      64              0.0000000000
      7710        64  PVCL2     OP31           21.7984367797      -27.4646775015       18.9824366805  MEMB      64              0.0000000000
      7711        64  PVCL2     OP32           21.2114612838      -25.1891881066       18.4567273880  MEMB      64              0.0000000000
      7712        64  PVCL2     C31            21.2056989477      -24.7066447945       19.8098739580  MEMB      64              0.0000000000
      7713        64  PVCL2     H31J           20.1675485135      -24.6446997831       20.2006777810  MEMB      64              0.0000000000
      7714        64  PVCL2     H31K           21.7465764310      -25.3942721903       20.4946669717  MEMB      64              0.0000000000
      7715        64  PVCL2     C2             23.6289620600      -29.1109274565       18.8048735854  MEMB      64              0.0000000000
      7716        64  PVCL2     HG22           24.3912456580      -29.5250135962       18.1107715657  MEMB      64              0.0000000000
      7717        64  PVCL2     OG12           24.2022261163      -28.7964756958       20.0592259915  MEMB      64              0.0000000000
      7718        64  PVCL2     HO12           24.1030295077      -27.8416922370       20.0470293381  MEMB      64              0.0000000000
      7719        64  PVCL2     C1             22.6795831394      -30.2819168849       18.9957492452  MEMB      64              0.0000000000
      7720        64  PVCL2     HG11           23.2375493536      -31.2320974304       19.1377055614  MEMB      64              0.0000000000
      7721        64  PVCL2     HG12           22.0684929096      -30.4409466089       18.0816380269  MEMB      64              0.0000000000
      7722        64  PVCL2     P1             20.7085542603      -31.2221812197       20.4826838823  MEMB      64              0.0000000000
      7723        64  PVCL2     OP13           21.5036843537      -32.3821501262       20.9833747694  MEMB      64              0.0000000000
      7724        64  PVCL2     OP14           19.5777825209      -30.6639340961       21.2577469242  MEMB      64              0.0000000000
      7725        64  PVCL2     OP11           21.7625903234      -30.0899609387       20.0559722010  MEMB      64              0.0000000000
      7726        64  PVCL2     OP12           20.0753107472      -31.6217281980       19.0748528757  MEMB      64              0.0000000000
      7727        64  PVCL2     C11            19.0302791314      -30.9346669674       18.4238381946  MEMB      64              0.0000000000
      7728        64  PVCL2     H11J           19.1089397052      -29.8264863170       18.4155409153  MEMB      64              0.0000000000
      7729        64  PVCL2     H11K           18.1154778313      -31.1199094382       19.0264533285  MEMB      64              0.0000000000
      7730        64  PVCL2     C12            18.8978449056      -31.3633891370       16.9620505585  MEMB      64              0.0000000000
      7731        64  PVCL2     H12J           19.1907106730      -32.4345860044       16.9290613993  MEMB      64              0.0000000000
      7732        64  PVCL2     O12            19.8195350523      -30.4948833260       16.2686727440  MEMB      64              0.0000000000
      7733        64  PVCL2     CA1            20.1527843257      -30.6841781420       15.0271488152  MEMB      64              0.0000000000
      7734        64  PVCL2     OA1            19.7251596923      -31.5514990284       14.2819044881  MEMB      64              0.0000000000
      7735        64  PVCL2     CA2            21.1980440995      -29.5844663982       14.6518870736  MEMB      64              0.0000000000
      7736        64  PVCL2     H2A            22.0118652036      -29.6013290803       15.4080163856  MEMB      64              0.0000000000
      7737        64  PVCL2     H2B            20.6827186291      -28.6114611781       14.5034904583  MEMB      64              0.0000000000
      7738        64  PVCL2     C13            17.4420074469      -31.1195521898       16.3942331322  MEMB      64              0.0000000000
      7739        64  PVCL2     H13J           16.7317523195      -31.5367243197       17.1397704759  MEMB      64              0.0000000000
      7740        64  PVCL2     H13K           17.2725437756      -31.5929548743       15.4035298171  MEMB      64              0.0000000000
      7741        64  PVCL2     O13            17.2177328174      -29.7307390829       16.3002656077  MEMB      64              0.0000000000
      7742        64  PVCL2     CB1            17.2261649968      -29.0223777611       15.1225449191  MEMB      64              0.0000000000
      7743        64  PVCL2     OB1            17.5663583133      -29.3953896816       14.0679274288  MEMB      64              0.0000000000
      7744        64  PVCL2     CB2            16.6237388894      -27.6511836751       15.3312913231  MEMB      64              0.0000000000
      7745        64  PVCL2     H2D            17.0050352764      -27.2803362663       16.3066920777  MEMB      64              0.0000000000
      7746        64  PVCL2     H2E            15.5228225222      -27.7625577545       15.4307902769  MEMB      64              0.0000000000
      7747        64  PVCL2     C32            21.9029648087      -23.3048946108       19.8687609795  MEMB      64              0.0000000000
      7748        64  PVCL2     H32J           21.8185613506      -22.8679784587       20.8867498824  MEMB      64              0.0000000000
      7749        64  PVCL2     O32            21.0691809701      -22.5825977675       18.9321539428  MEMB      64              0.0000000000
      7750        64  PVCL2     CC1            19.9048303525      -22.0782848884       19.3189192372  MEMB      64              0.0000000000
      7751        64  PVCL2     OC1            19.4200574037      -22.1625809101       20.4270970598  MEMB      64              0.0000000000
      7752        64  PVCL2     CC2            19.2427743333      -21.1597602811       18.1767828757  MEMB      64              0.0000000000
      7753        64  PVCL2     H2R            20.0950057007      -20.5550416586       17.7995056098  MEMB      64              0.0000000000
      7754        64  PVCL2     H2S            18.4892260798      -20.5480398397       18.7174161727  MEMB      64              0.0000000000
      7755        64  PVCL2     C33            23.3927642284      -23.1928672700       19.5090218431  MEMB      64              0.0000000000
      7756        64  PVCL2     H33J           23.6908544275      -22.1226565511       19.5196104263  MEMB      64              0.0000000000
      7757        64  PVCL2     H33K           24.0516261590      -23.7305635803       20.2239377467  MEMB      64              0.0000000000
      7758        64  PVCL2     O33            23.6609550433      -23.8126444255       18.2121720241  MEMB      64              0.0000000000
      7759        64  PVCL2     CD1            23.8591922772      -23.0213233806       17.1542837450  MEMB      64              0.0000000000
      7760        64  PVCL2     OD1            24.1260684164      -21.8269353024       17.2610978439  MEMB      64              0.0000000000
      7761        64  PVCL2     CD2            23.7599993561      -23.7506350032       15.7837055988  MEMB      64              0.0000000000
      7762        64  PVCL2     H2X            24.2295795625      -24.7457589346       15.9371467599  MEMB      64              0.0000000000
      7763        64  PVCL2     H2Y            24.3303382579      -23.2649462862       14.9632539779  MEMB      64              0.0000000000
      7764        64  PVCL2     CA3            21.7721227679      -29.6883309337       13.2476367445  MEMB      64              0.0000000000
      7765        64  PVCL2     H3A            21.9239315199      -28.6169229331       12.9959229999  MEMB      64              0.0000000000
      7766        64  PVCL2     H3B            20.9285758558      -29.9584848652       12.5769902849  MEMB      64              0.0000000000
      7767        64  PVCL2     CA4            23.0733506120      -30.4574279391       13.1990299527  MEMB      64              0.0000000000
      7768        64  PVCL2     H4A            22.9545950914      -31.5443171702       13.3962347268  MEMB      64              0.0000000000
      7769        64  PVCL2     H4B            23.8343111640      -29.9347541487       13.8171494647  MEMB      64              0.0000000000
      7770        64  PVCL2     CA5            23.6486945912      -30.4889450102       11.7938342429  MEMB      64              0.0000000000
      7771        64  PVCL2     H5A            23.0677541022      -31.0543847867       11.0341586400  MEMB      64              0.0000000000
      7772        64  PVCL2     H5B            24.5389187011      -31.1521145116       11.7487933445  MEMB      64              0.0000000000
      7773        64  PVCL2     CA6            24.0336259946      -29.1879624859       11.2181173865  MEMB      64              0.0000000000
      7774        64  PVCL2     H6A            24.5535425087      -28.6703094860       12.0524093020  MEMB      64              0.0000000000
      7775        64  PVCL2     H6B            23.0812075977      -28.6364319933       11.0663468562  MEMB      64              0.0000000000
      7776        64  PVCL2     CA7            24.7447650492      -29.0878789214        9.8294296559  MEMB      64              0.0000000000
      7777        64  PVCL2     H7A            25.7628846923      -29.4687842601       10.0589158912  MEMB      64              0.0000000000
      7778        64  PVCL2     H7B            24.8964947309      -27.9967278855        9.6855947860  MEMB      64              0.0000000000
      7779        64  PVCL2     CA8            24.0859829934      -29.6784506738        8.6360002309  MEMB      64              0.0000000000
      7780        64  PVCL2     H8A            23.9917747986      -30.7854485119        8.6346701705  MEMB      64              0.0000000000
      7781        64  PVCL2     H8B            24.7167813268      -29.5403634837        7.7319279577  MEMB      64              0.0000000000
      7782        64  PVCL2     CA9            22.6914813517      -28.9709596613        8.4233693827  MEMB      64              0.0000000000
      7783        64  PVCL2     H9A            22.8931848834      -27.9115033449        8.6901824711  MEMB      64              0.0000000000
      7784        64  PVCL2     H9B            21.9521270111      -29.4166994000        9.1226492213  MEMB      64              0.0000000000
      7785        64  PVCL2     CA10           22.0636855993      -29.2274547876        7.0161751042  MEMB      64              0.0000000000
      7786        64  PVCL2     H10A           20.9732948500      -29.0251584055        6.9495034175  MEMB      64              0.0000000000
      7787        64  PVCL2     H10B           22.1311188688      -30.3304439721        6.9013336261  MEMB      64              0.0000000000
      7788        64  PVCL2     CA11           22.9325146149      -28.6310469377        5.9176273707  MEMB      64              0.0000000000
      7789        64  PVCL2     H11A           23.9962346059      -28.8998889832        5.9965143788  MEMB      64              0.0000000000
      7790        64  PVCL2     CA12           22.4509225738      -27.8776725056        4.9075696769  MEMB      64              0.0000000000
      7791        64  PVCL2     H12A           23.2948596257      -27.5835582829        4.2662685075  MEMB      64              0.0000000000
      7792        64  PVCL2     CA13           21.0725886086      -27.3925944020        4.4837135903  MEMB      64              0.0000000000
      7793        64  PVCL2     H13A           21.0229755725      -26.3253497994        4.1790036598  MEMB      64              0.0000000000
      7794        64  PVCL2     H13B           20.4536279279      -27.3523980066        5.4054473148  MEMB      64              0.0000000000
      7795        64  PVCL2     CA14           20.4477687317      -28.3955949081        3.5159878183  MEMB      64              0.0000000000
      7796        64  PVCL2     H14A           19.4655221698      -27.9010634880        3.3580263452  MEMB      64              0.0000000000
      7797        64  PVCL2     H14B           20.2853976323      -29.3759408091        4.0128566692  MEMB      64              0.0000000000
      7798        64  PVCL2     CA15           21.2287902512      -28.5801047133        2.2091398221  MEMB      64              0.0000000000
      7799        64  PVCL2     H15A           21.8414628945      -27.7093626598        1.8917113231  MEMB      64              0.0000000000
      7800        64  PVCL2     H15B           20.4646498760      -28.7910435518        1.4307346119  MEMB      64              0.0000000000
      7801        64  PVCL2     CA16           22.1858244194      -29.8556238264        2.1855116952  MEMB      64              0.0000000000
      7802        64  PVCL2     H16A           21.6668303385      -30.8019875401        2.4488762091  MEMB      64              0.0000000000
      7803        64  PVCL2     H16B           23.0712664013      -29.6947730526        2.8370013848  MEMB      64              0.0000000000
      7804        64  PVCL2     CA17           22.6893975839      -30.1643977233        0.7901031424  MEMB      64              0.0000000000
      7805        64  PVCL2     H17A           23.4002480615      -29.3893773241        0.4318349006  MEMB      64              0.0000000000
      7806        64  PVCL2     H17B           21.8032994194      -30.3594144795        0.1489161437  MEMB      64              0.0000000000
      7807        64  PVCL2     CA18           23.5885292301      -31.4123890836        0.8043019684  MEMB      64              0.0000000000
      7808        64  PVCL2     H18A           23.9785351594      -31.6653934249       -0.2047594579  MEMB      64              0.0000000000
      7809        64  PVCL2     H18B           23.0202983330      -32.3356794276        1.0471399225  MEMB      64              0.0000000000
      7810        64  PVCL2     H18C           24.3739647749      -31.2937539827        1.5810498843  MEMB      64              0.0000000000
      7811        64  PVCL2     CB3            16.9921577801      -26.6484914358       14.3060250258  MEMB      64              0.0000000000
      7812        64  PVCL2     H3D            17.9265253440      -26.8967234010       13.7586136240  MEMB      64              0.0000000000
      7813        64  PVCL2     H3E            17.2536475658      -25.6388647811       14.6889062974  MEMB      64              0.0000000000
      7814        64  PVCL2     CB4            15.8810862653      -26.3156746752       13.2882182559  MEMB      64              0.0000000000
      7815        64  PVCL2     H4D            16.1769608886      -25.4591358825       12.6454735498  MEMB      64              0.0000000000
      7816        64  PVCL2     H4E            15.0187441351      -26.0544464987       13.9381772938  MEMB      64              0.0000000000
      7817        64  PVCL2     CB5            15.4242208672      -27.5704471286       12.4768551519  MEMB      64              0.0000000000
      7818        64  PVCL2     H5D            14.5941794545      -28.0755551355       13.0155740209  MEMB      64              0.0000000000
      7819        64  PVCL2     H5E            16.2944885273      -28.2572713218       12.4045528234  MEMB      64              0.0000000000
      7820        64  PVCL2     CB6            15.0313924118      -27.3118280352       10.9967948007  MEMB      64              0.0000000000
      7821        64  PVCL2     H6D            14.9606913030      -28.2892816406       10.4734336269  MEMB      64              0.0000000000
      7822        64  PVCL2     H6E            15.8682896275      -26.8653406947       10.4183725231  MEMB      64              0.0000000000
      7823        64  PVCL2     CB7            13.7944554666      -26.4097068505       10.7968027861  MEMB      64              0.0000000000
      7824        64  PVCL2     H7D            13.9581145941      -25.6248799495       11.5659467586  MEMB      64              0.0000000000
      7825        64  PVCL2     H7E            12.8522436848      -26.9549346637       11.0188036266  MEMB      64              0.0000000000
      7826        64  PVCL2     CB8            13.7668459265      -25.8841851942        9.3385772508  MEMB      64              0.0000000000
      7827        64  PVCL2     H8D            14.6036672062      -25.1828443070        9.1332193208  MEMB      64              0.0000000000
      7828        64  PVCL2     H8E            12.7772507239      -25.3795491546        9.3194940485  MEMB      64              0.0000000000
      7829        64  PVCL2     CB9            13.6211543130      -26.9619889440        8.2201456158  MEMB      64              0.0000000000
      7830        64  PVCL2     H9D            12.6872675277      -27.4943076711        8.5008814143  MEMB      64              0.0000000000
      7831        64  PVCL2     H9E            14.4361032229      -27.7157624052        8.2649298930  MEMB      64              0.0000000000
      7832        64  PVCL2     CB10           13.3007501187      -26.3606905143        6.7973051801  MEMB      64              0.0000000000
      7833        64  PVCL2     H10D           13.1907200775      -27.1081483171        5.9827374820  MEMB      64              0.0000000000
      7834        64  PVCL2     H10E           14.1479143434      -25.7404912406        6.4340061986  MEMB      64              0.0000000000
      7835        64  PVCL2     CB11           12.0255749457      -25.5159690635        6.5946324113  MEMB      64              0.0000000000
      7836        64  PVCL2     H11D           11.9084853067      -24.9002151488        5.6773223451  MEMB      64              0.0000000000
      7837        64  PVCL2     H11E           12.0072578715      -24.8521949524        7.4853566345  MEMB      64              0.0000000000
      7838        64  PVCL2     CB12           10.7825041085      -26.4178372325        6.6560564270  MEMB      64              0.0000000000
      7839        64  PVCL2     H12D            9.8842567345      -25.7816303876        6.5053483541  MEMB      64              0.0000000000
      7840        64  PVCL2     H12E           10.7369733615      -26.9594029746        7.6250530404  MEMB      64              0.0000000000
      7841        64  PVCL2     CB13           10.6571775773      -27.4694625589        5.4748894012  MEMB      64              0.0000000000
      7842        64  PVCL2     H13D            9.5823341120      -27.6797182081        5.2882758117  MEMB      64              0.0000000000
      7843        64  PVCL2     H13E           11.2674921891      -28.3734480864        5.6861882814  MEMB      64              0.0000000000
      7844        64  PVCL2     CB14           11.1277829450      -26.9397746162        4.0731576543  MEMB      64              0.0000000000
      7845        64  PVCL2     H14D           12.1207592762      -26.4443920326        4.1271493940  MEMB      64              0.0000000000
      7846        64  PVCL2     H14E           10.3815706381      -26.1941152661        3.7246171974  MEMB      64              0.0000000000
      7847        64  PVCL2     CB15           11.1904327334      -28.0243824472        2.9798958271  MEMB      64              0.0000000000
      7848        64  PVCL2     H15D           11.9076137402      -28.7811639027        3.3636318623  MEMB      64              0.0000000000
      7849        64  PVCL2     H15E           11.6857890715      -27.6277034673        2.0679806686  MEMB      64              0.0000000000
      7850        64  PVCL2     CB16            9.8884505808      -28.6834626398        2.6357629033  MEMB      64              0.0000000000
      7851        64  PVCL2     H16D           10.1448088581      -29.6127200561        2.0834211314  MEMB      64              0.0000000000
      7852        64  PVCL2     H16E            9.2228492530      -28.0395029160        2.0220771665  MEMB      64              0.0000000000
      7853        64  PVCL2     H16F            9.3351881710      -29.0185580756        3.5390533906  MEMB      64              0.0000000000
      7854        64  PVCL2     CC3            18.6059341267      -22.0761435572       17.1587346897  MEMB      64              0.0000000000
      7855        64  PVCL2     H3R            17.9057440044      -22.6818453705       17.7728845662  MEMB      64              0.0000000000
      7856        64  PVCL2     H3S            19.4028704663      -22.7174351668       16.7251928920  MEMB      64              0.0000000000
      7857        64  PVCL2     CC4            17.7818334038      -21.4561537123       16.0047101238  MEMB      64              0.0000000000
      7858        64  PVCL2     H4R            17.1437510757      -20.6259805524       16.3761726529  MEMB      64              0.0000000000
      7859        64  PVCL2     H4S            17.1679587878      -22.2736467859       15.5697566076  MEMB      64              0.0000000000
      7860        64  PVCL2     CC5            18.5958388659      -20.7711894799       14.8351243227  MEMB      64              0.0000000000
      7861        64  PVCL2     H5R            19.3820788273      -21.4777886654       14.4932691462  MEMB      64              0.0000000000
      7862        64  PVCL2     H5S            19.2538886371      -19.9477390515       15.1861519077  MEMB      64              0.0000000000
      7863        64  PVCL2     CC6            17.6765468182      -20.4285852172       13.6343882886  MEMB      64              0.0000000000
      7864        64  PVCL2     H6R            18.1903091135      -19.7168003879       12.9534096637  MEMB      64              0.0000000000
      7865        64  PVCL2     H6S            16.7196424176      -20.0456824519       14.0491656405  MEMB      64              0.0000000000
      7866        64  PVCL2     CC7            17.4755592907      -21.6413535548       12.7289785619  MEMB      64              0.0000000000
      7867        64  PVCL2     H7R            17.2756903759      -22.5376692923       13.3542718250  MEMB      64              0.0000000000
      7868        64  PVCL2     H7S            18.5080685270      -21.9588772493       12.4693164823  MEMB      64              0.0000000000
      7869        64  PVCL2     CC8            16.6204687799      -21.4342384418       11.4874747366  MEMB      64              0.0000000000
      7870        64  PVCL2     H8R            17.0051651035      -20.5812530817       10.8885211533  MEMB      64              0.0000000000
      7871        64  PVCL2     H8S            15.6219537597      -21.1834208551       11.9050626892  MEMB      64              0.0000000000
      7872        64  PVCL2     CC9            16.4362919233      -22.7481176305       10.7376818027  MEMB      64              0.0000000000
      7873        64  PVCL2     H9R            15.6194083529      -22.7120503965        9.9855368330  MEMB      64              0.0000000000
      7874        64  PVCL2     H9S            16.1084662667      -23.4969969738       11.4900325226  MEMB      64              0.0000000000
      7875        64  PVCL2     CC10           17.7050433825      -23.2431988104        9.9848486890  MEMB      64              0.0000000000
      7876        64  PVCL2     H10R           17.5038853319      -24.3300083834        9.8721487483  MEMB      64              0.0000000000
      7877        64  PVCL2     H10S           18.5042911943      -23.0965339458       10.7424844901  MEMB      64              0.0000000000
      7878        64  PVCL2     CC11           17.7386828417      -22.4741211458        8.6802573315  MEMB      64              0.0000000000
      7879        64  PVCL2     H11R           18.2160933793      -21.4849705826        8.7407609460  MEMB      64              0.0000000000
      7880        64  PVCL2     CC12           17.2973120620      -22.8812591083        7.4751183114  MEMB      64              0.0000000000
      7881        64  PVCL2     H12R           17.3000944885      -22.1990075085        6.6122598636  MEMB      64              0.0000000000
      7882        64  PVCL2     CC13           16.6735201601      -24.1700756327        7.1179320212  MEMB      64              0.0000000000
      7883        64  PVCL2     H13R           15.5911219848      -24.2293003486        7.3613000265  MEMB      64              0.0000000000
      7884        64  PVCL2     H13S           17.0044159449      -25.0384672820        7.7268043406  MEMB      64              0.0000000000
      7885        64  PVCL2     CC14           16.8842058114      -24.7131195213        5.6888393465  MEMB      64              0.0000000000
      7886        64  PVCL2     H14R           16.4759381154      -25.7463845535        5.6902249349  MEMB      64              0.0000000000
      7887        64  PVCL2     H14S           17.9374397700      -24.8203613743        5.3519143601  MEMB      64              0.0000000000
      7888        64  PVCL2     CC15           16.1372552545      -23.8514266697        4.5847921812  MEMB      64              0.0000000000
      7889        64  PVCL2     H15R           16.3893855982      -22.7694157565        4.5828547776  MEMB      64              0.0000000000
      7890        64  PVCL2     H15S           15.0395732205      -23.7459368355        4.7200228405  MEMB      64              0.0000000000
      7891        64  PVCL2     CC16           16.3993630372      -24.4262158086        3.1812327218  MEMB      64              0.0000000000
      7892        64  PVCL2     H16R           15.9453478641      -23.7772958033        2.4020697889  MEMB      64              0.0000000000
      7893        64  PVCL2     H16S           15.8992677521      -25.4166250959        3.1236560313  MEMB      64              0.0000000000
      7894        64  PVCL2     CC17           17.8296622584      -24.6542687818        2.7266229857  MEMB      64              0.0000000000
      7895        64  PVCL2     H17R           18.3325246595      -25.3491488805        3.4327345685  MEMB      64              0.0000000000
      7896        64  PVCL2     H17S           18.3662205722      -23.6824501094        2.6819601371  MEMB      64              0.0000000000
      7897        64  PVCL2     CC18           17.9015520284      -25.1953128105        1.2503804314  MEMB      64              0.0000000000
      7898        64  PVCL2     H18R           17.2753521531      -26.1064522084        1.1407442566  MEMB      64              0.0000000000
      7899        64  PVCL2     H18S           18.9855476283      -25.3043364326        1.0326917163  MEMB      64              0.0000000000
      7900        64  PVCL2     H18T           17.6637611222      -24.3448324758        0.5762430451  MEMB      64              0.0000000000
      7901        64  PVCL2     CD3            22.2789592586      -23.7560437243       15.4239092819  MEMB      64              0.0000000000
      7902        64  PVCL2     H3X            21.9297357508      -22.7207039294       15.2228257197  MEMB      64              0.0000000000
      7903        64  PVCL2     H3Y            21.7645885251      -24.1932383548       16.3062949743  MEMB      64              0.0000000000
      7904        64  PVCL2     CD4            21.8776119129      -24.6700445378       14.2471561787  MEMB      64              0.0000000000
      7905        64  PVCL2     H4X            22.0372318706      -25.7547018184       14.4270479108  MEMB      64              0.0000000000
      7906        64  PVCL2     H4Y            22.5680119456      -24.3782843449       13.4270677593  MEMB      64              0.0000000000
      7907        64  PVCL2     CD5            20.4370780732      -24.5484383576       13.7240074957  MEMB      64              0.0000000000
      7908        64  PVCL2     H5X            20.3159820147      -23.5986109332       13.1605491395  MEMB      64              0.0000000000
      7909        64  PVCL2     H5Y            19.5922814727      -24.5425612294       14.4455369444  MEMB      64              0.0000000000
      7910        64  PVCL2     CD6            20.2550574417      -25.7869395020       12.7697585044  MEMB      64              0.0000000000
      7911        64  PVCL2     H6X            19.1640619849      -25.7204445255       12.5706898254  MEMB      64              0.0000000000
      7912        64  PVCL2     H6Y            20.4483906597      -26.7536031277       13.2821104121  MEMB      64              0.0000000000
      7913        64  PVCL2     CD7            21.0403256449      -25.7525211016       11.4588992221  MEMB      64              0.0000000000
      7914        64  PVCL2     H7X            22.1229868656      -25.6714126035       11.6946690531  MEMB      64              0.0000000000
      7915        64  PVCL2     H7Y            20.6501867802      -24.8606722392       10.9234377807  MEMB      64              0.0000000000
      7916        64  PVCL2     CD8            20.8316511526      -26.8343911329       10.4973397057  MEMB      64              0.0000000000
      7917        64  PVCL2     H8X            20.9712319509      -27.8060145978       11.0177112942  MEMB      64              0.0000000000
      7918        64  PVCL2     H8Y            21.4911041271      -26.7903731957        9.6043081840  MEMB      64              0.0000000000
      7919        64  PVCL2     CD9            19.2921652247      -26.8799756703        9.9616944131  MEMB      64              0.0000000000
      7920        64  PVCL2     H9X            18.9430539604      -25.9035526678        9.5628953724  MEMB      64              0.0000000000
      7921        64  PVCL2     H9Y            18.6561617228      -27.0914150361       10.8477608444  MEMB      64              0.0000000000
      7922        64  PVCL2     CD10           19.0377864222      -28.0590412912        9.0207975784  MEMB      64              0.0000000000
      7923        64  PVCL2     H10X           19.7989013841      -28.8372893850        9.2429568275  MEMB      64              0.0000000000
      7924        64  PVCL2     H10Y           19.0623248313      -27.7497535364        7.9539989036  MEMB      64              0.0000000000
      7925        64  PVCL2     CD11           17.6269399650      -28.6887758846        9.1015832346  MEMB      64              0.0000000000
      7926        64  PVCL2     H11X           16.9271174762      -27.9874682393        8.5988533331  MEMB      64              0.0000000000
      7927        64  PVCL2     H11Y           17.3434687977      -28.8762865119       10.1593193470  MEMB      64              0.0000000000
      7928        64  PVCL2     CD12           17.5845888703      -30.0837082005        8.5845241360  MEMB      64              0.0000000000
      7929        64  PVCL2     H12X           16.5542456832      -30.4958983972        8.6375623863  MEMB      64              0.0000000000
      7930        64  PVCL2     H12Y           18.3583784235      -30.6896827797        9.1025637970  MEMB      64              0.0000000000
      7931        64  PVCL2     CD13           17.8529157064      -30.2171077521        6.9789954227  MEMB      64              0.0000000000
      7932        64  PVCL2     H13X           17.9169206778      -31.2630341322        6.6098578738  MEMB      64              0.0000000000
      7933        64  PVCL2     H13Y           18.8228656685      -29.8054862106        6.6267377847  MEMB      64              0.0000000000
      7934        64  PVCL2     CD14           16.7762551467      -29.5671399630        6.0223768388  MEMB      64              0.0000000000
      7935        64  PVCL2     H14X           16.8453754266      -28.4876994790        6.2760529609  MEMB      64              0.0000000000
      7936        64  PVCL2     H14Y           15.8862930595      -30.1160146031        6.3979099680  MEMB      64              0.0000000000
      7937        64  PVCL2     CD15           17.1270749114      -29.9224511166        4.5593009096  MEMB      64              0.0000000000
      7938        64  PVCL2     H15X           17.1340101512      -31.0082293083        4.3240181086  MEMB      64              0.0000000000
      7939        64  PVCL2     H15Y           18.1569557593      -29.5065439392        4.5855228021  MEMB      64              0.0000000000
      7940        64  PVCL2     CD16           16.3186189288      -29.0936769356        3.5794996824  MEMB      64              0.0000000000
      7941        64  PVCL2     H16X           16.6099664556      -28.0250074849        3.6654254151  MEMB      64              0.0000000000
      7942        64  PVCL2     H16Y           15.2146818896      -29.1264723695        3.7001987695  MEMB      64              0.0000000000
      7943        64  PVCL2     H16Z           16.6826472180      -29.4883833360        2.6068689590  MEMB      64              0.0000000000
      7944        65  POPE      N              32.1781770059        5.4782128802       18.7852967437  MEMB      65              0.0000000000
      7945        65  POPE      HN1            32.7167620047        5.1415357555       19.6088104051  MEMB      65              0.0000000000
      7946        65  POPE      HN2            31.2197312162        5.7150784774       19.1122162495  MEMB      65              0.0000000000
      7947        65  POPE      HN3            31.9520516996        4.7210761357       18.1091226512  MEMB      65              0.0000000000
      7948        65  POPE      C12            32.9915548403        6.5373847317       18.1327051373  MEMB      65              0.0000000000
      7949        65  POPE      H12A           32.3027189608        7.0644091904       17.4383916147  MEMB      65              0.0000000000
      7950        65  POPE      H12B           33.7393016664        5.9288386280       17.5805571159  MEMB      65              0.0000000000
      7951        65  POPE      C11            33.4893875658        7.5445968064       19.1989629392  MEMB      65              0.0000000000
      7952        65  POPE      H11A           34.1606968351        7.0747220482       19.9492179167  MEMB      65              0.0000000000
      7953        65  POPE      H11B           32.6707904706        7.9860275619       19.8067118483  MEMB      65              0.0000000000
      7954        65  POPE      P              35.2944749991        9.4409547494       19.2560298586  MEMB      65              0.0000000000
      7955        65  POPE      O13            34.8696263861        9.5147009423       20.6989185735  MEMB      65              0.0000000000
      7956        65  POPE      O14            35.4350372555       10.7070082381       18.4829389211  MEMB      65              0.0000000000
      7957        65  POPE      O11            36.5509631662        8.6331427205       18.9242383970  MEMB      65              0.0000000000
      7958        65  POPE      O12            34.1275195793        8.5907158105       18.5209094599  MEMB      65              0.0000000000
      7959        65  POPE      C1             36.7126440985        7.5986931509       17.9992964639  MEMB      65              0.0000000000
      7960        65  POPE      HA             35.7620016626        7.0956284317       17.7208620085  MEMB      65              0.0000000000
      7961        65  POPE      HB             37.2512949692        6.7342800477       18.4431054539  MEMB      65              0.0000000000
      7962        65  POPE      C2             37.4152342972        7.8215467466       16.6400834832  MEMB      65              0.0000000000
      7963        65  POPE      HS             38.4166702401        8.2968642340       16.7143820919  MEMB      65              0.0000000000
      7964        65  POPE      O21            36.5466562995        8.7680259391       15.8829390260  MEMB      65              0.0000000000
      7965        65  POPE      C21            37.1374893402        9.3830959542       14.8653451133  MEMB      65              0.0000000000
      7966        65  POPE      O22            38.2298128859        9.0350786373       14.3136447663  MEMB      65              0.0000000000
      7967        65  POPE      C22            36.2538051151       10.5289743312       14.2905715166  MEMB      65              0.0000000000
      7968        65  POPE      H2R            36.6600692528       11.4226429770       14.8107893444  MEMB      65              0.0000000000
      7969        65  POPE      H2S            35.1529827381       10.4946061979       14.4366193825  MEMB      65              0.0000000000
      7970        65  POPE      C3             37.5122486426        6.5566700698       15.8245267223  MEMB      65              0.0000000000
      7971        65  POPE      HX             38.2975209244        5.9166091954       16.2805857030  MEMB      65              0.0000000000
      7972        65  POPE      HY             37.7365073073        6.8114747281       14.7666497239  MEMB      65              0.0000000000
      7973        65  POPE      O31            36.3281550478        5.8563683116       15.7642999914  MEMB      65              0.0000000000
      7974        65  POPE      C31            35.5646615924        5.8104941071       14.6962075591  MEMB      65              0.0000000000
      7975        65  POPE      O32            35.6664998283        6.6423522653       13.7623136070  MEMB      65              0.0000000000
      7976        65  POPE      C32            34.5531393110        4.6748134447       14.7019890387  MEMB      65              0.0000000000
      7977        65  POPE      H2X            33.6445862113        5.0216811141       15.2391437983  MEMB      65              0.0000000000
      7978        65  POPE      H2Y            35.0189959926        3.7215101048       15.0313997709  MEMB      65              0.0000000000
      7979        65  POPE      C23            36.5908934816       10.8435069467       12.8124136662  MEMB      65              0.0000000000
      7980        65  POPE      H3R            37.6448307892       11.1949837957       12.8133328423  MEMB      65              0.0000000000
      7981        65  POPE      H3S            36.0438773969       11.7932939426       12.6307564902  MEMB      65              0.0000000000
      7982        65  POPE      C24            36.1460316285        9.7913692193       11.7125512115  MEMB      65              0.0000000000
      7983        65  POPE      H4R            35.1111371350        9.4860731190       11.9773329460  MEMB      65              0.0000000000
      7984        65  POPE      H4S            36.7935265723        8.8968641461       11.5903544537  MEMB      65              0.0000000000
      7985        65  POPE      C25            36.2384437614       10.3881878132       10.2764560087  MEMB      65              0.0000000000
      7986        65  POPE      H5R            37.2780270996       10.7364731064       10.0967751270  MEMB      65              0.0000000000
      7987        65  POPE      H5S            35.5600183270       11.2674057323       10.2442767775  MEMB      65              0.0000000000
      7988        65  POPE      C26            35.9169999296        9.4079193768        9.2372489371  MEMB      65              0.0000000000
      7989        65  POPE      H6R            34.8928345029        9.0944793758        9.5324792633  MEMB      65              0.0000000000
      7990        65  POPE      H6S            36.5919341376        8.5356888713        9.1030888337  MEMB      65              0.0000000000
      7991        65  POPE      C27            35.7090318815       10.0050285959        7.8192016282  MEMB      65              0.0000000000
      7992        65  POPE      H7R            36.7062821775       10.3843463743        7.5094736124  MEMB      65              0.0000000000
      7993        65  POPE      H7S            35.0085204225       10.8671851525        7.8021448026  MEMB      65              0.0000000000
      7994        65  POPE      C28            35.2273378213        8.9662889476        6.8145701040  MEMB      65              0.0000000000
      7995        65  POPE      H8R            35.9613760313        8.1370300393        6.9031053763  MEMB      65              0.0000000000
      7996        65  POPE      H8S            35.5013923190        9.3724098953        5.8174333981  MEMB      65              0.0000000000
      7997        65  POPE      C29            33.7948986097        8.4716171930        6.8792545598  MEMB      65              0.0000000000
      7998        65  POPE      H91            33.4757402032        7.9981384765        7.8194440481  MEMB      65              0.0000000000
      7999        65  POPE      C210           32.8372682537        8.5275316107        5.8766109724  MEMB      65              0.0000000000
      8000        65  POPE      H101           31.8738085978        8.0424920129        6.0922085474  MEMB      65              0.0000000000
      8001        65  POPE      C211           33.0192369876        9.0992083857        4.5140682670  MEMB      65              0.0000000000
      8002        65  POPE      H11R           33.7211165284        8.3768163048        4.0452018288  MEMB      65              0.0000000000
      8003        65  POPE      H11S           33.5850628343       10.0502952158        4.6120239891  MEMB      65              0.0000000000
      8004        65  POPE      C212           31.8473995661        9.2015002681        3.4904067014  MEMB      65              0.0000000000
      8005        65  POPE      H12R           31.3254949138       10.1586442901        3.7044441594  MEMB      65              0.0000000000
      8006        65  POPE      H12S           31.0316814048        8.4763366484        3.6979220872  MEMB      65              0.0000000000
      8007        65  POPE      C213           32.3925592869        9.1893458588        2.0597340281  MEMB      65              0.0000000000
      8008        65  POPE      H13R           33.0328568052        8.3008085252        1.8730761299  MEMB      65              0.0000000000
      8009        65  POPE      H13S           33.0438824739       10.0654907601        1.8536539122  MEMB      65              0.0000000000
      8010        65  POPE      C214           31.2317128871        9.0792747238        1.0808779485  MEMB      65              0.0000000000
      8011        65  POPE      H14R           30.7514416236       10.0609797036        0.8810885119  MEMB      65              0.0000000000
      8012        65  POPE      H14S           30.5226637911        8.3596306270        1.5431363981  MEMB      65              0.0000000000
      8013        65  POPE      C215           31.6767814382        8.5208031696       -0.3086784036  MEMB      65              0.0000000000
      8014        65  POPE      H15R           32.2000806978        7.5497426569       -0.1763132314  MEMB      65              0.0000000000
      8015        65  POPE      H15S           32.3889175700        9.2107555489       -0.8098262898  MEMB      65              0.0000000000
      8016        65  POPE      C216           30.4203132506        8.2808673213       -1.2029619296  MEMB      65              0.0000000000
      8017        65  POPE      H16R           29.8021204644        9.2032236240       -1.1653043762  MEMB      65              0.0000000000
      8018        65  POPE      H16S           29.7126286454        7.5396791306       -0.7738424702  MEMB      65              0.0000000000
      8019        65  POPE      C217           30.7111295771        7.8242219657       -2.6770118600  MEMB      65              0.0000000000
      8020        65  POPE      H17R           31.3548452701        8.6351959228       -3.0798423915  MEMB      65              0.0000000000
      8021        65  POPE      H17S           29.7324267195        7.7751115764       -3.2005072436  MEMB      65              0.0000000000
      8022        65  POPE      C218           31.3864805076        6.5167473728       -2.8748418943  MEMB      65              0.0000000000
      8023        65  POPE      H18R           31.2771426843        6.1117824523       -3.9036127158  MEMB      65              0.0000000000
      8024        65  POPE      H18S           30.9334596452        5.7360998555       -2.2270126340  MEMB      65              0.0000000000
      8025        65  POPE      H18T           32.4927488790        6.5618076331       -2.7828608072  MEMB      65              0.0000000000
      8026        65  POPE      C33            33.9073924671        4.3477734173       13.3284108527  MEMB      65              0.0000000000
      8027        65  POPE      H3X            33.4351415366        5.3410339488       13.1711419146  MEMB      65              0.0000000000
      8028        65  POPE      H3Y            33.1753581466        3.5171474117       13.4206449921  MEMB      65              0.0000000000
      8029        65  POPE      C34            34.9112150570        3.9963029418       12.2196979919  MEMB      65              0.0000000000
      8030        65  POPE      H4X            34.7728854581        2.9199820743       11.9815404139  MEMB      65              0.0000000000
      8031        65  POPE      H4Y            35.9486296706        4.0772980860       12.6089688694  MEMB      65              0.0000000000
      8032        65  POPE      C35            34.8407348709        4.9073979749       10.9329831960  MEMB      65              0.0000000000
      8033        65  POPE      H5X            35.5726367150        5.7425482254       10.9671132804  MEMB      65              0.0000000000
      8034        65  POPE      H5Y            33.8169637662        5.3312913373       10.8521875813  MEMB      65              0.0000000000
      8035        65  POPE      C36            35.0437121541        4.0863386427        9.6527745639  MEMB      65              0.0000000000
      8036        65  POPE      H6X            34.2709225555        4.4231458284        8.9291181991  MEMB      65              0.0000000000
      8037        65  POPE      H6Y            34.7720020991        3.0316496902        9.8721511178  MEMB      65              0.0000000000
      8038        65  POPE      C37            36.3594046374        4.3842882855        8.9066047357  MEMB      65              0.0000000000
      8039        65  POPE      H7X            37.2832926376        4.3138409539        9.5196212142  MEMB      65              0.0000000000
      8040        65  POPE      H7Y            36.3678202662        5.4862274204        8.7652551144  MEMB      65              0.0000000000
      8041        65  POPE      C38            36.7110536483        3.5758566679        7.6379901709  MEMB      65              0.0000000000
      8042        65  POPE      H8X            36.6696928618        2.4926823312        7.8815970004  MEMB      65              0.0000000000
      8043        65  POPE      H8Y            37.7693459494        3.6520039234        7.3085360853  MEMB      65              0.0000000000
      8044        65  POPE      C39            35.8168350475        3.7000791462        6.3604327627  MEMB      65              0.0000000000
      8045        65  POPE      H9X            35.0030189682        2.9459385806        6.3030158524  MEMB      65              0.0000000000
      8046        65  POPE      H9Y            36.3594918648        3.2187044491        5.5189326407  MEMB      65              0.0000000000
      8047        65  POPE      C310           35.4983164850        5.0819435079        5.8831200054  MEMB      65              0.0000000000
      8048        65  POPE      H10X           36.5000354609        5.5112005581        5.6672071059  MEMB      65              0.0000000000
      8049        65  POPE      H10Y           34.9994670422        5.6501996557        6.6970958459  MEMB      65              0.0000000000
      8050        65  POPE      C311           34.6676715265        5.3890104618        4.5979615803  MEMB      65              0.0000000000
      8051        65  POPE      H11X           34.5056976017        6.4855797075        4.5229875177  MEMB      65              0.0000000000
      8052        65  POPE      H11Y           33.7155144449        4.8230583357        4.5118466817  MEMB      65              0.0000000000
      8053        65  POPE      C312           35.5510633765        4.9837270421        3.4459952987  MEMB      65              0.0000000000
      8054        65  POPE      H12X           35.7237807325        3.8866568524        3.4764426102  MEMB      65              0.0000000000
      8055        65  POPE      H12Y           36.5670502250        5.4079668676        3.5946981043  MEMB      65              0.0000000000
      8056        65  POPE      C313           35.1493579067        5.4088429486        2.0224327126  MEMB      65              0.0000000000
      8057        65  POPE      H13X           35.9304180099        5.0063949995        1.3425054830  MEMB      65              0.0000000000
      8058        65  POPE      H13Y           35.1262679842        6.5180032306        1.9628389539  MEMB      65              0.0000000000
      8059        65  POPE      C314           33.7441307337        5.1454465652        1.4894080558  MEMB      65              0.0000000000
      8060        65  POPE      H14X           32.9848935463        5.8938571360        1.8020769832  MEMB      65              0.0000000000
      8061        65  POPE      H14Y           33.4209741811        4.2194358303        2.0113234920  MEMB      65              0.0000000000
      8062        65  POPE      C315           33.6712895781        4.9683900045       -0.1059865475  MEMB      65              0.0000000000
      8063        65  POPE      H15X           34.4696140944        4.2379062181       -0.3577642475  MEMB      65              0.0000000000
      8064        65  POPE      H15Y           33.8595930657        5.9225073513       -0.6431297262  MEMB      65              0.0000000000
      8065        65  POPE      C316           32.3506902473        4.2481838938       -0.6123980578  MEMB      65              0.0000000000
      8066        65  POPE      H16X           32.4750743974        4.0113577792       -1.6907116891  MEMB      65              0.0000000000
      8067        65  POPE      H16Y           31.3657636113        4.7622195783       -0.6096382709  MEMB      65              0.0000000000
      8068        65  POPE      H16Z           32.2623834810        3.3277523777        0.0034984015  MEMB      65              0.0000000000
      8069        66  OYPE      N              36.6973074350       -8.4674538850       22.4074181234  MEMB      66              0.0000000000
      8070        66  OYPE      HN1            36.8650470833       -9.4269416976       22.7718992288  MEMB      66              0.0000000000
      8071        66  OYPE      HN2            37.5727424904       -8.1860700937       21.9215821678  MEMB      66              0.0000000000
      8072        66  OYPE      HN3            36.4041709116       -7.8654694225       23.2032107290  MEMB      66              0.0000000000
      8073        66  OYPE      C12            35.5498497436       -8.4496703980       21.4008336311  MEMB      66              0.0000000000
      8074        66  OYPE      H12A           35.5076351705       -7.4224593359       20.9796728841  MEMB      66              0.0000000000
      8075        66  OYPE      H12B           34.6290914765       -8.5868147714       22.0072303383  MEMB      66              0.0000000000
      8076        66  OYPE      C11            35.7979235874       -9.3042944354       20.1461699831  MEMB      66              0.0000000000
      8077        66  OYPE      H11A           35.7476881527      -10.3790251432       20.4232102617  MEMB      66              0.0000000000
      8078        66  OYPE      H11B           36.8383562006       -9.1822098214       19.7761481041  MEMB      66              0.0000000000
      8079        66  OYPE      P              35.1616134623       -9.0467170211       17.5503437409  MEMB      66              0.0000000000
      8080        66  OYPE      O13            33.9408237952       -8.7773499367       16.7299777429  MEMB      66              0.0000000000
      8081        66  OYPE      O14            35.8422665809      -10.2842923253       17.2581720402  MEMB      66              0.0000000000
      8082        66  OYPE      O11            36.1983390482       -7.7831775812       17.3524114089  MEMB      66              0.0000000000
      8083        66  OYPE      O12            34.7773355524       -8.9774107224       19.1546733687  MEMB      66              0.0000000000
      8084        66  OYPE      C1             35.5787229138       -6.5183052725       17.1326565032  MEMB      66              0.0000000000
      8085        66  OYPE      HA             36.0569792721       -5.8443702730       17.8752219242  MEMB      66              0.0000000000
      8086        66  OYPE      HB             34.4696544284       -6.5340654571       17.1962160106  MEMB      66              0.0000000000
      8087        66  OYPE      C2             35.9989874064       -5.8736924248       15.7360318524  MEMB      66              0.0000000000
      8088        66  OYPE      HS             35.2776874209       -5.0575422253       15.5170656453  MEMB      66              0.0000000000
      8089        66  OYPE      O21            36.0990189182       -6.9634832756       14.7539085689  MEMB      66              0.0000000000
      8090        66  OYPE      C21            34.9757430733       -7.0080486743       14.0101799333  MEMB      66              0.0000000000
      8091        66  OYPE      O22            33.9712883197       -6.3701608438       14.2492419746  MEMB      66              0.0000000000
      8092        66  OYPE      C22            35.2374186397       -7.6755048693       12.6147713275  MEMB      66              0.0000000000
      8093        66  OYPE      H2R            36.1172769508       -7.2366465304       12.0974958520  MEMB      66              0.0000000000
      8094        66  OYPE      H2S            34.2893448891       -7.5628093838       12.0466364275  MEMB      66              0.0000000000
      8095        66  OYPE      C3             37.4044409387       -5.1401438942       15.8482182965  MEMB      66              0.0000000000
      8096        66  OYPE      HX             38.1672671968       -5.8645474661       16.2055095403  MEMB      66              0.0000000000
      8097        66  OYPE      HY             37.4118145767       -4.3120516262       16.5888461240  MEMB      66              0.0000000000
      8098        66  OYPE      O31            37.7938113654       -4.5195470150       14.6107900787  MEMB      66              0.0000000000
      8099        66  OYPE      C31            38.4696826299       -5.2379617311       13.7402929820  MEMB      66              0.0000000000
      8100        66  OYPE      O32            39.0534718262       -6.3013687541       13.9050898223  MEMB      66              0.0000000000
      8101        66  OYPE      C32            38.6978163314       -4.4175439450       12.4179077320  MEMB      66              0.0000000000
      8102        66  OYPE      H2X            38.3357832384       -3.3717438200       12.5156610399  MEMB      66              0.0000000000
      8103        66  OYPE      H2Y            39.7823481023       -4.4201861834       12.1768585215  MEMB      66              0.0000000000
      8104        66  OYPE      C23            35.3798525907       -9.1835652545       12.8383692785  MEMB      66              0.0000000000
      8105        66  OYPE      H3R            34.6434351202       -9.3058559963       13.6612027826  MEMB      66              0.0000000000
      8106        66  OYPE      H3S            36.3749999078       -9.4636374617       13.2452629760  MEMB      66              0.0000000000
      8107        66  OYPE      C24            35.0144546388      -10.1227577489       11.6601666792  MEMB      66              0.0000000000
      8108        66  OYPE      H4R            35.7298092678      -10.0652451563       10.8120619110  MEMB      66              0.0000000000
      8109        66  OYPE      H4S            34.1083831823       -9.7234032475       11.1563099327  MEMB      66              0.0000000000
      8110        66  OYPE      C25            34.9785183422      -11.5748309226       12.1882897006  MEMB      66              0.0000000000
      8111        66  OYPE      H5R            34.4784891279      -11.5972838494       13.1801503073  MEMB      66              0.0000000000
      8112        66  OYPE      H5S            36.0327191039      -11.8178571244       12.4411136821  MEMB      66              0.0000000000
      8113        66  OYPE      C26            34.2969151071      -12.5723229081       11.3582721752  MEMB      66              0.0000000000
      8114        66  OYPE      H6R            33.2736163072      -12.1916319095       11.1527121308  MEMB      66              0.0000000000
      8115        66  OYPE      H6S            34.3508037859      -13.5379309283       11.9050976878  MEMB      66              0.0000000000
      8116        66  OYPE      C27            35.0161983196      -12.7445933317        9.9619952619  MEMB      66              0.0000000000
      8117        66  OYPE      H7R            35.0699442081      -11.8067661283        9.3687728844  MEMB      66              0.0000000000
      8118        66  OYPE      H7S            34.2283311898      -13.3485333979        9.4631535636  MEMB      66              0.0000000000
      8119        66  OYPE      C28            36.3347768930      -13.5266967472        9.9023522450  MEMB      66              0.0000000000
      8120        66  OYPE      H8R            36.5415934672      -13.9828256998        8.9106394357  MEMB      66              0.0000000000
      8121        66  OYPE      H8S            36.2933844181      -14.4312098273       10.5461407249  MEMB      66              0.0000000000
      8122        66  OYPE      C29            37.4601301478      -12.7078661675       10.3333184342  MEMB      66              0.0000000000
      8123        66  OYPE      H9R            37.7815568677      -12.9846099176       11.3482558364  MEMB      66              0.0000000000
      8124        66  OYPE      C210           38.0742812107      -11.6869840081        9.6380832817  MEMB      66              0.0000000000
      8125        66  OYPE      H10R           38.7817859985      -11.0922905128       10.2345530283  MEMB      66              0.0000000000
      8126        66  OYPE      C211           37.8321535954      -11.1291216461        8.2482537346  MEMB      66              0.0000000000
      8127        66  OYPE      H11R           37.7213348887      -10.0308687036        8.3742726138  MEMB      66              0.0000000000
      8128        66  OYPE      H11S           36.8835691889      -11.5324340981        7.8337086050  MEMB      66              0.0000000000
      8129        66  OYPE      C212           39.0452437856      -11.2902765418        7.3515977540  MEMB      66              0.0000000000
      8130        66  OYPE      H12R           39.2124084183      -12.3438075344        7.0410351635  MEMB      66              0.0000000000
      8131        66  OYPE      H12S           39.9833189825      -10.9468650486        7.8378126174  MEMB      66              0.0000000000
      8132        66  OYPE      C213           38.8971290068      -10.5420267244        5.9420549868  MEMB      66              0.0000000000
      8133        66  OYPE      H13R           39.8636935579      -10.4028765594        5.4122329002  MEMB      66              0.0000000000
      8134        66  OYPE      H13S           38.6680614966       -9.4713124471        6.1302576128  MEMB      66              0.0000000000
      8135        66  OYPE      C214           37.8288821819      -11.1105372498        4.9452303344  MEMB      66              0.0000000000
      8136        66  OYPE      H14R           36.8976704210      -11.0767312080        5.5502291599  MEMB      66              0.0000000000
      8137        66  OYPE      H14S           37.9759473367      -12.1799138013        4.6823114286  MEMB      66              0.0000000000
      8138        66  OYPE      C215           37.6880624375      -10.3417848470        3.5624394496  MEMB      66              0.0000000000
      8139        66  OYPE      H15R           38.5741216802      -10.5604549086        2.9288748405  MEMB      66              0.0000000000
      8140        66  OYPE      H15S           37.6015895190       -9.2419888472        3.6939390422  MEMB      66              0.0000000000
      8141        66  OYPE      C216           36.3893248886      -10.6312872873        2.8114125212  MEMB      66              0.0000000000
      8142        66  OYPE      H16R           36.2532464608      -11.7329226191        2.7644765930  MEMB      66              0.0000000000
      8143        66  OYPE      H16S           36.5077765971      -10.3227341251        1.7507117941  MEMB      66              0.0000000000
      8144        66  OYPE      H16T           35.3960040522      -10.4343661410        3.2684217086  MEMB      66              0.0000000000
      8145        66  OYPE      C33            37.9955623548       -5.2203321725       11.3774435337  MEMB      66              0.0000000000
      8146        66  OYPE      H3X            36.9309491477       -5.3315215039       11.6750284779  MEMB      66              0.0000000000
      8147        66  OYPE      H3Y            38.4981085503       -6.2085372056       11.3051987107  MEMB      66              0.0000000000
      8148        66  OYPE      C34            37.9146688323       -4.4748224807       10.0004867167  MEMB      66              0.0000000000
      8149        66  OYPE      H4X            37.1704907124       -3.6526187219       10.0675775185  MEMB      66              0.0000000000
      8150        66  OYPE      H4Y            38.8072050595       -3.8483372955        9.7878439015  MEMB      66              0.0000000000
      8151        66  OYPE      C35            37.5372038339       -5.2472379301        8.6970041269  MEMB      66              0.0000000000
      8152        66  OYPE      H5X            38.4274161623       -5.9002643911        8.5729106804  MEMB      66              0.0000000000
      8153        66  OYPE      H5Y            37.5767083977       -4.6332259986        7.7719364714  MEMB      66              0.0000000000
      8154        66  OYPE      C36            36.3306169843       -6.1235805286        8.6204964598  MEMB      66              0.0000000000
      8155        66  OYPE      H6X            36.4896102566       -6.9511755236        9.3444634528  MEMB      66              0.0000000000
      8156        66  OYPE      H6Y            35.4916682828       -5.5411746777        9.0578624917  MEMB      66              0.0000000000
      8157        66  OYPE      C37            35.8704626485       -6.4982466582        7.1926450238  MEMB      66              0.0000000000
      8158        66  OYPE      H7X            35.1410129419       -5.6816220125        7.0046339357  MEMB      66              0.0000000000
      8159        66  OYPE      H7Y            36.6466557341       -6.4968194696        6.3977599165  MEMB      66              0.0000000000
      8160        66  OYPE      C38            35.0343775823       -7.8162493982        7.0628111331  MEMB      66              0.0000000000
      8161        66  OYPE      H8X            34.7768093381       -7.9164572057        5.9867363879  MEMB      66              0.0000000000
      8162        66  OYPE      H8Y            35.7102846969       -8.6567712254        7.3292575311  MEMB      66              0.0000000000
      8163        66  OYPE      C39            33.8670194447       -7.9842065957        7.9845494063  MEMB      66              0.0000000000
      8164        66  OYPE      H9X            33.9586015808       -7.6198821822        9.0184161033  MEMB      66              0.0000000000
      8165        66  OYPE      C310           32.6809205966       -8.5984292314        7.6829725903  MEMB      66              0.0000000000
      8166        66  OYPE      H10X           31.9745740596       -8.7254149791        8.5166086324  MEMB      66              0.0000000000
      8167        66  OYPE      C311           32.4534980664       -9.2287512490        6.3358850345  MEMB      66              0.0000000000
      8168        66  OYPE      H11X           33.3729675378       -9.7560501734        6.0029399424  MEMB      66              0.0000000000
      8169        66  OYPE      H11Y           31.5832916893       -9.9135181750        6.4261963483  MEMB      66              0.0000000000
      8170        66  OYPE      C312           32.0235361894       -8.2871212995        5.2101110947  MEMB      66              0.0000000000
      8171        66  OYPE      H12X           32.4045719766       -7.2620838502        5.4061492320  MEMB      66              0.0000000000
      8172        66  OYPE      H12Y           30.9289336677       -8.1060677787        5.2683051717  MEMB      66              0.0000000000
      8173        66  OYPE      C313           32.2689434282       -8.8794877156        3.8443182859  MEMB      66              0.0000000000
      8174        66  OYPE      H13X           33.2932566835       -9.3090536374        3.8203080060  MEMB      66              0.0000000000
      8175        66  OYPE      H13Y           31.5735267853       -9.7324270182        3.6919657906  MEMB      66              0.0000000000
      8176        66  OYPE      C314           32.2314013084       -7.8912105606        2.6802179879  MEMB      66              0.0000000000
      8177        66  OYPE      H14X           31.6695546622       -7.0007704364        3.0348531113  MEMB      66              0.0000000000
      8178        66  OYPE      H14Y           31.5728348654       -8.3051740051        1.8869675934  MEMB      66              0.0000000000
      8179        66  OYPE      C315           33.4885614862       -7.4782178756        1.9831511987  MEMB      66              0.0000000000
      8180        66  OYPE      H15X           33.2320749074       -7.0244873458        1.0019972013  MEMB      66              0.0000000000
      8181        66  OYPE      H15Y           34.1881048346       -8.3233397789        1.8078536587  MEMB      66              0.0000000000
      8182        66  OYPE      C316           34.2674469652       -6.3288611803        2.7764763202  MEMB      66              0.0000000000
      8183        66  OYPE      H16X           34.4574298932       -6.8720045960        3.7268564539  MEMB      66              0.0000000000
      8184        66  OYPE      H16Y           33.5631670131       -5.5061493414        3.0243802443  MEMB      66              0.0000000000
      8185        66  OYPE      C317           35.6178424896       -5.8610872048        2.2423786156  MEMB      66              0.0000000000
      8186        66  OYPE      H17X           36.1403367975       -5.2104066640        2.9758196245  MEMB      66              0.0000000000
      8187        66  OYPE      H17Y           35.3995589956       -5.3389197551        1.2863364986  MEMB      66              0.0000000000
      8188        66  OYPE      C318           36.6723074408       -6.9141358938        1.8889596416  MEMB      66              0.0000000000
      8189        66  OYPE      H18X           37.0094927289       -7.3504779561        2.8534455192  MEMB      66              0.0000000000
      8190        66  OYPE      H18Y           36.3757373397       -7.7692371499        1.2446235493  MEMB      66              0.0000000000
      8191        66  OYPE      H18Z           37.4454232117       -6.3618174387        1.3131503126  MEMB      66              0.0000000000
      8192        67  PMPE      N             -33.1115602296       15.8323181406       18.6602589303  MEMB      67              0.0000000000
      8193        67  PMPE      HN1           -33.8664723607       16.5476437639       18.6561080427  MEMB      67              0.0000000000
      8194        67  PMPE      HN2           -32.6750982361       15.9548766903       17.7242672196  MEMB      67              0.0000000000
      8195        67  PMPE      HN3           -33.5258095836       14.8802479676       18.7199244793  MEMB      67              0.0000000000
      8196        67  PMPE      C12           -32.2612069950       16.0488729619       19.8526342681  MEMB      67              0.0000000000
      8197        67  PMPE      H12A          -31.5476742837       15.2025423785       19.9470627571  MEMB      67              0.0000000000
      8198        67  PMPE      H12B          -32.9154561880       16.0913879032       20.7495576322  MEMB      67              0.0000000000
      8199        67  PMPE      C11           -31.3151224796       17.3259276787       19.6358640679  MEMB      67              0.0000000000
      8200        67  PMPE      H11A          -30.6800065878       17.0176099690       18.7780243017  MEMB      67              0.0000000000
      8201        67  PMPE      H11B          -30.7938884784       17.6786784287       20.5513983295  MEMB      67              0.0000000000
      8202        67  PMPE      P             -31.3675241458       19.8058869918       18.8303512168  MEMB      67              0.0000000000
      8203        67  PMPE      O13           -30.0407085877       19.7369096167       19.4348908527  MEMB      67              0.0000000000
      8204        67  PMPE      O14           -32.2730358000       20.9443166025       19.1976628321  MEMB      67              0.0000000000
      8205        67  PMPE      O11           -31.2816599990       19.8451572829       17.2674350574  MEMB      67              0.0000000000
      8206        67  PMPE      O12           -32.1380425772       18.3786082895       19.1209027736  MEMB      67              0.0000000000
      8207        67  PMPE      C1            -30.0772089208       19.7707402904       16.5988824895  MEMB      67              0.0000000000
      8208        67  PMPE      HA            -29.5111915446       18.9205222474       17.0360034571  MEMB      67              0.0000000000
      8209        67  PMPE      HB            -29.5168188203       20.7280671590       16.6605996500  MEMB      67              0.0000000000
      8210        67  PMPE      C2            -30.2986716959       19.4904878733       15.0863392199  MEMB      67              0.0000000000
      8211        67  PMPE      HS            -29.4494450541       19.8441298812       14.4633845873  MEMB      67              0.0000000000
      8212        67  PMPE      O21           -31.5093744889       20.0322378057       14.5223626904  MEMB      67              0.0000000000
      8213        67  PMPE      C21           -31.6763895967       21.3571283213       14.5235407669  MEMB      67              0.0000000000
      8214        67  PMPE      O22           -30.9024919131       22.1661132512       15.0212805652  MEMB      67              0.0000000000
      8215        67  PMPE      C22           -33.0937287902       21.6095134865       13.9690365812  MEMB      67              0.0000000000
      8216        67  PMPE      H2R           -33.6876737097       21.7615164191       14.8955598689  MEMB      67              0.0000000000
      8217        67  PMPE      H2S           -33.6690864779       20.7799536659       13.5052314143  MEMB      67              0.0000000000
      8218        67  PMPE      C3            -30.3299367060       17.9609844499       14.9332423341  MEMB      67              0.0000000000
      8219        67  PMPE      HX            -30.8162021310       17.6554111865       15.8842901738  MEMB      67              0.0000000000
      8220        67  PMPE      HY            -29.3196883941       17.5073851024       15.0225018075  MEMB      67              0.0000000000
      8221        67  PMPE      O31           -31.1205426753       17.4969896158       13.8659123325  MEMB      67              0.0000000000
      8222        67  PMPE      C31           -30.4123864350       17.4920295146       12.7448469979  MEMB      67              0.0000000000
      8223        67  PMPE      O32           -29.3965931087       18.0538953546       12.4928540691  MEMB      67              0.0000000000
      8224        67  PMPE      C32           -31.1428485282       16.5857775922       11.7363142642  MEMB      67              0.0000000000
      8225        67  PMPE      H2X           -32.2090608013       16.5227816641       12.0421637374  MEMB      67              0.0000000000
      8226        67  PMPE      H2Y           -30.7662827124       15.5430755376       11.8090574055  MEMB      67              0.0000000000
      8227        67  PMPE      C23           -33.1065057693       22.8203942960       13.0144308312  MEMB      67              0.0000000000
      8228        67  PMPE      H3R           -32.4509470031       23.6758820299       13.2840684914  MEMB      67              0.0000000000
      8229        67  PMPE      H3S           -34.1054856309       23.3032238106       13.0713165336  MEMB      67              0.0000000000
      8230        67  PMPE      C24           -32.8646451650       22.4035262646       11.5723369266  MEMB      67              0.0000000000
      8231        67  PMPE      H4R           -33.1262052285       23.3170010329       10.9966010569  MEMB      67              0.0000000000
      8232        67  PMPE      H4S           -33.5256895429       21.5397843405       11.3458616718  MEMB      67              0.0000000000
      8233        67  PMPE      C25           -31.4527784003       21.8344691696       11.2700668157  MEMB      67              0.0000000000
      8234        67  PMPE      H5R           -31.4116719210       20.8246637315       11.7315040226  MEMB      67              0.0000000000
      8235        67  PMPE      H5S           -30.8020982928       22.5561023551       11.8087523093  MEMB      67              0.0000000000
      8236        67  PMPE      C26           -31.1165773027       21.6720528781        9.8041383118  MEMB      67              0.0000000000
      8237        67  PMPE      H6R           -30.9728388878       22.6739469978        9.3460242507  MEMB      67              0.0000000000
      8238        67  PMPE      H6S           -32.0170248898       21.2008156070        9.3553054203  MEMB      67              0.0000000000
      8239        67  PMPE      C27           -29.8868942871       20.7930609246        9.6783774421  MEMB      67              0.0000000000
      8240        67  PMPE      H7R           -30.0456348839       19.7960082750       10.1420673084  MEMB      67              0.0000000000
      8241        67  PMPE      H7S           -29.0593281321       21.2032912041       10.2957638846  MEMB      67              0.0000000000
      8242        67  PMPE      C28           -29.5186148308       20.4553036617        8.2203174535  MEMB      67              0.0000000000
      8243        67  PMPE      H8R           -29.1580163662       21.4131202741        7.7880249061  MEMB      67              0.0000000000
      8244        67  PMPE      H8S           -30.4054808203       20.1001847661        7.6531490042  MEMB      67              0.0000000000
      8245        67  PMPE      C29           -28.4963325474       19.2953433408        8.2907719553  MEMB      67              0.0000000000
      8246        67  PMPE      H9R           -28.8370329765       18.4345879180        8.9050553510  MEMB      67              0.0000000000
      8247        67  PMPE      C217          -27.1017389796       19.8066700438        8.4609635204  MEMB      67              0.0000000000
      8248        67  PMPE      H17R          -26.5982006853       19.2362068479        9.2316187240  MEMB      67              0.0000000000
      8249        67  PMPE      H17S          -27.0627059613       20.8864421686        8.3870879280  MEMB      67              0.0000000000
      8250        67  PMPE      C210          -27.4934322639       19.0697566354        7.2080055428  MEMB      67              0.0000000000
      8251        67  PMPE      H10R          -27.1313880857       18.0207431039        7.1549423444  MEMB      67              0.0000000000
      8252        67  PMPE      C211          -27.3970181952       19.8577329391        5.8595070415  MEMB      67              0.0000000000
      8253        67  PMPE      H11R          -26.6214389666       19.3847358497        5.2199203521  MEMB      67              0.0000000000
      8254        67  PMPE      H11S          -26.9630644471       20.8554658766        6.0843057571  MEMB      67              0.0000000000
      8255        67  PMPE      C212          -28.6030815542       20.0456086052        4.9183856468  MEMB      67              0.0000000000
      8256        67  PMPE      H12R          -28.2818149628       20.2783772416        3.8806343384  MEMB      67              0.0000000000
      8257        67  PMPE      H12S          -29.1449523937       20.8888153056        5.3976545543  MEMB      67              0.0000000000
      8258        67  PMPE      C213          -29.4787408473       18.7377811114        4.8360371420  MEMB      67              0.0000000000
      8259        67  PMPE      H13R          -29.8650744522       18.4526744029        5.8379258235  MEMB      67              0.0000000000
      8260        67  PMPE      H13S          -28.8940614180       17.8110449396        4.6526492876  MEMB      67              0.0000000000
      8261        67  PMPE      C214          -30.6256810186       18.8449917676        3.7551116509  MEMB      67              0.0000000000
      8262        67  PMPE      H14R          -30.1652058531       19.3261805668        2.8658749162  MEMB      67              0.0000000000
      8263        67  PMPE      H14S          -31.3806546503       19.5773924716        4.1127777127  MEMB      67              0.0000000000
      8264        67  PMPE      C215          -31.4432541093       17.6224903985        3.3510922240  MEMB      67              0.0000000000
      8265        67  PMPE      H15R          -31.8215212922       17.1564776029        4.2860077611  MEMB      67              0.0000000000
      8266        67  PMPE      H15S          -30.6809556341       16.9195242394        2.9522684160  MEMB      67              0.0000000000
      8267        67  PMPE      C216          -32.5738204235       17.9083266798        2.3880047075  MEMB      67              0.0000000000
      8268        67  PMPE      H16R          -33.0490519610       17.0366000590        1.8894377050  MEMB      67              0.0000000000
      8269        67  PMPE      H16S          -33.3595591034       18.5244833167        2.8751253054  MEMB      67              0.0000000000
      8270        67  PMPE      H16T          -32.1773374661       18.4520264485        1.5039730626  MEMB      67              0.0000000000
      8271        67  PMPE      C33           -30.9650948792       16.9952528540       10.2659855937  MEMB      67              0.0000000000
      8272        67  PMPE      H3X           -29.8987905766       16.9120236240        9.9653371579  MEMB      67              0.0000000000
      8273        67  PMPE      H3Y           -31.2679112515       18.0638313880       10.2383603272  MEMB      67              0.0000000000
      8274        67  PMPE      C34           -31.8541015789       16.2595602774        9.2330564303  MEMB      67              0.0000000000
      8275        67  PMPE      H4X           -32.8803960974       16.4426191412        9.6171524128  MEMB      67              0.0000000000
      8276        67  PMPE      H4Y           -31.7753651902       15.1520799189        9.1929457741  MEMB      67              0.0000000000
      8277        67  PMPE      C35           -31.8493978078       16.9364821295        7.8425173262  MEMB      67              0.0000000000
      8278        67  PMPE      H5X           -32.4881022025       16.2251209219        7.2765285059  MEMB      67              0.0000000000
      8279        67  PMPE      H5Y           -30.8345187530       16.9384912606        7.3904803782  MEMB      67              0.0000000000
      8280        67  PMPE      C36           -32.6701011579       18.2345672333        7.7548444728  MEMB      67              0.0000000000
      8281        67  PMPE      H6X           -32.5081024402       18.7428835399        6.7803231969  MEMB      67              0.0000000000
      8282        67  PMPE      H6Y           -32.3809529825       18.9716724961        8.5341970888  MEMB      67              0.0000000000
      8283        67  PMPE      C37           -34.2389254193       18.1096967356        7.8533415394  MEMB      67              0.0000000000
      8284        67  PMPE      H7X           -34.3950544901       17.9171863543        8.9363397576  MEMB      67              0.0000000000
      8285        67  PMPE      H7Y           -34.5126131845       17.2006901430        7.2761741434  MEMB      67              0.0000000000
      8286        67  PMPE      C38           -35.0019856142       19.2930882047        7.3570543106  MEMB      67              0.0000000000
      8287        67  PMPE      H8X           -34.5677751988       20.1752517222        7.8743268513  MEMB      67              0.0000000000
      8288        67  PMPE      H8Y           -36.0666224251       19.1444907142        7.6377476148  MEMB      67              0.0000000000
      8289        67  PMPE      C39           -35.0061572921       19.3399721044        5.7791819857  MEMB      67              0.0000000000
      8290        67  PMPE      H9X           -35.5663447953       18.4055719026        5.5614511016  MEMB      67              0.0000000000
      8291        67  PMPE      H9Y           -34.0269170993       19.3009038760        5.2558435268  MEMB      67              0.0000000000
      8292        67  PMPE      C310          -35.8396796542       20.5493503202        5.2871618207  MEMB      67              0.0000000000
      8293        67  PMPE      H10X          -36.8969330938       20.3056031719        5.5261668858  MEMB      67              0.0000000000
      8294        67  PMPE      H10Y          -35.7362724572       20.6724576652        4.1878564519  MEMB      67              0.0000000000
      8295        67  PMPE      C311          -35.3669718571       21.9553604896        5.8206329165  MEMB      67              0.0000000000
      8296        67  PMPE      H11X          -35.7393013628       21.9586995741        6.8673810599  MEMB      67              0.0000000000
      8297        67  PMPE      H11Y          -35.9481313060       22.7163373402        5.2571721075  MEMB      67              0.0000000000
      8298        67  PMPE      C312          -33.8545905230       22.3285399056        5.5790507205  MEMB      67              0.0000000000
      8299        67  PMPE      H12X          -33.1593039011       21.6039926696        6.0543708047  MEMB      67              0.0000000000
      8300        67  PMPE      H12Y          -33.6182170705       23.3172223258        6.0273321734  MEMB      67              0.0000000000
      8301        67  PMPE      C313          -33.4772960642       22.4575244855        4.1167014261  MEMB      67              0.0000000000
      8302        67  PMPE      H13X          -33.9956298370       23.2748991070        3.5712196697  MEMB      67              0.0000000000
      8303        67  PMPE      H13Y          -33.6921174264       21.5118980028        3.5745178828  MEMB      67              0.0000000000
      8304        67  PMPE      C314          -31.9498363207       22.7076327986        3.9758505303  MEMB      67              0.0000000000
      8305        67  PMPE      H14X          -31.3190322556       22.0492196239        4.6105939945  MEMB      67              0.0000000000
      8306        67  PMPE      H14Y          -31.7788681105       23.6987628162        4.4478167756  MEMB      67              0.0000000000
      8307        67  PMPE      C315          -31.4254555307       23.0016642181        2.5384446124  MEMB      67              0.0000000000
      8308        67  PMPE      H15X          -30.3739982802       23.3510016146        2.6204261335  MEMB      67              0.0000000000
      8309        67  PMPE      H15Y          -31.9644562845       23.8598860463        2.0831911588  MEMB      67              0.0000000000
      8310        67  PMPE      C316          -31.4897792711       21.8466357008        1.5033601819  MEMB      67              0.0000000000
      8311        67  PMPE      H16X          -31.3688091863       22.1913700076        0.4541489879  MEMB      67              0.0000000000
      8312        67  PMPE      H16Y          -32.5349589194       21.4743736278        1.4455544444  MEMB      67              0.0000000000
      8313        67  PMPE      H16Z          -30.7807771754       21.0075612732        1.6694653282  MEMB      67              0.0000000000
      8314        68  PYPG      C13            28.0052169267      -20.2370198892       17.9431572884  MEMB      68              0.0000000000
      8315        68  PYPG      H13A           27.2464179888      -19.4359071739       18.0726320802  MEMB      68              0.0000000000
      8316        68  PYPG      H13B           28.7120537481      -19.8272294796       17.1903130915  MEMB      68              0.0000000000
      8317        68  PYPG      OC3            27.3035418414      -21.3382382977       17.3951679307  MEMB      68              0.0000000000
      8318        68  PYPG      HO3            26.3794041411      -21.1816816743       17.6026751852  MEMB      68              0.0000000000
      8319        68  PYPG      C12            28.7053978742      -20.5745062441       19.2476999726  MEMB      68              0.0000000000
      8320        68  PYPG      H12A           27.9326931448      -20.9751793528       19.9442396348  MEMB      68              0.0000000000
      8321        68  PYPG      OC2            29.2544835923      -19.3922853932       19.8315660735  MEMB      68              0.0000000000
      8322        68  PYPG      HO2            29.7879009132      -19.7419807462       20.5784904082  MEMB      68              0.0000000000
      8323        68  PYPG      C11            29.8319273283      -21.6440162418       19.2275651060  MEMB      68              0.0000000000
      8324        68  PYPG      H11A           30.1788154027      -21.7175857085       20.2804550287  MEMB      68              0.0000000000
      8325        68  PYPG      H11B           30.6820888998      -21.2545878606       18.6276552690  MEMB      68              0.0000000000
      8326        68  PYPG      P              29.6254884324      -24.3110889701       19.3091886163  MEMB      68              0.0000000000
      8327        68  PYPG      O13            28.5713920066      -25.2910857559       18.9467253975  MEMB      68              0.0000000000
      8328        68  PYPG      O14            29.8379245283      -23.9967466881       20.7395049157  MEMB      68              0.0000000000
      8329        68  PYPG      O11            30.9724352384      -24.7829084485       18.6941215395  MEMB      68              0.0000000000
      8330        68  PYPG      O12            29.4694752427      -22.9091530777       18.6653031715  MEMB      68              0.0000000000
      8331        68  PYPG      C1             32.1572206406      -23.9851392751       18.7558004422  MEMB      68              0.0000000000
      8332        68  PYPG      HA             33.0397567204      -24.6345559990       18.9394004778  MEMB      68              0.0000000000
      8333        68  PYPG      HB             32.1515012661      -23.2325329707       19.5730348553  MEMB      68              0.0000000000
      8334        68  PYPG      C2             32.4421043153      -23.3325193102       17.4444871562  MEMB      68              0.0000000000
      8335        68  PYPG      HS             31.5955251156      -22.7301751676       17.0510328091  MEMB      68              0.0000000000
      8336        68  PYPG      O21            32.6265335564      -24.3758980560       16.4486920684  MEMB      68              0.0000000000
      8337        68  PYPG      C21            32.1890143267      -24.1791759861       15.1391700495  MEMB      68              0.0000000000
      8338        68  PYPG      O22            31.6737235363      -23.1439023436       14.7895817138  MEMB      68              0.0000000000
      8339        68  PYPG      C22            32.6523536209      -25.3474987045       14.2944816317  MEMB      68              0.0000000000
      8340        68  PYPG      H2R            33.5956873255      -25.7430725806       14.7280296406  MEMB      68              0.0000000000
      8341        68  PYPG      H2S            32.8711451829      -24.8609730046       13.3199334852  MEMB      68              0.0000000000
      8342        68  PYPG      C3             33.7560085781      -22.4751619636       17.5762347700  MEMB      68              0.0000000000
      8343        68  PYPG      HX             34.6705742744      -22.9881622595       17.9432792849  MEMB      68              0.0000000000
      8344        68  PYPG      HY             33.6021683580      -21.7061076746       18.3631335353  MEMB      68              0.0000000000
      8345        68  PYPG      O31            33.9886846385      -21.7941507478       16.2642162276  MEMB      68              0.0000000000
      8346        68  PYPG      C31            34.6636657270      -22.5096832837       15.3615683542  MEMB      68              0.0000000000
      8347        68  PYPG      O32            35.4624329885      -23.3910352848       15.5893227154  MEMB      68              0.0000000000
      8348        68  PYPG      C32            34.4930130098      -21.9689337808       13.9547816804  MEMB      68              0.0000000000
      8349        68  PYPG      H2X            34.1977926355      -22.8454131849       13.3391928435  MEMB      68              0.0000000000
      8350        68  PYPG      H2Y            33.6138159782      -21.2898955701       13.9392741095  MEMB      68              0.0000000000
      8351        68  PYPG      C23            31.6123581499      -26.4600213033       13.8998424711  MEMB      68              0.0000000000
      8352        68  PYPG      H3R            31.3822504032      -26.9303572942       14.8797177314  MEMB      68              0.0000000000
      8353        68  PYPG      H3S            32.0426540424      -27.1982185194       13.1897499674  MEMB      68              0.0000000000
      8354        68  PYPG      C24            30.3666623332      -25.8398677843       13.1765505149  MEMB      68              0.0000000000
      8355        68  PYPG      H4R            30.6613817002      -25.1888965666       12.3258459618  MEMB      68              0.0000000000
      8356        68  PYPG      H4S            29.8568655367      -25.2886634276       13.9954535031  MEMB      68              0.0000000000
      8357        68  PYPG      C25            29.2436210238      -26.7682906244       12.6497534052  MEMB      68              0.0000000000
      8358        68  PYPG      H5R            29.1664117777      -27.6994628973       13.2508173511  MEMB      68              0.0000000000
      8359        68  PYPG      H5S            29.5664916544      -27.1544239795       11.6593105893  MEMB      68              0.0000000000
      8360        68  PYPG      C26            27.8971317155      -26.1048202929       12.5516990055  MEMB      68              0.0000000000
      8361        68  PYPG      H6R            27.4781198957      -25.7817068880       13.5286065177  MEMB      68              0.0000000000
      8362        68  PYPG      H6S            27.1728316358      -26.6271304064       11.8907128862  MEMB      68              0.0000000000
      8363        68  PYPG      C27            27.9941542370      -24.6660222346       11.8862509257  MEMB      68              0.0000000000
      8364        68  PYPG      H7R            28.6763211838      -23.9912584714       12.4463071996  MEMB      68              0.0000000000
      8365        68  PYPG      H7S            27.0899908564      -24.0316014032       12.0059133130  MEMB      68              0.0000000000
      8366        68  PYPG      C28            28.0922996482      -24.7880714202       10.3415381278  MEMB      68              0.0000000000
      8367        68  PYPG      H8R            27.6492667178      -25.7503786569       10.0068625052  MEMB      68              0.0000000000
      8368        68  PYPG      H8S            29.1576211511      -24.9869691058       10.0968948688  MEMB      68              0.0000000000
      8369        68  PYPG      C29            27.5747989399      -23.6259280368        9.5329911056  MEMB      68              0.0000000000
      8370        68  PYPG      H9R            27.2680434593      -22.6536325476        9.9459590908  MEMB      68              0.0000000000
      8371        68  PYPG      C210           27.3642688402      -23.6624111579        8.1780194277  MEMB      68              0.0000000000
      8372        68  PYPG      H10R           26.9592367303      -22.7831926707        7.6555977111  MEMB      68              0.0000000000
      8373        68  PYPG      C211           27.7547586455      -24.9386829063        7.3883606056  MEMB      68              0.0000000000
      8374        68  PYPG      H11R           26.8942670664      -25.6109891458        7.1837157025  MEMB      68              0.0000000000
      8375        68  PYPG      H11S           28.4125218637      -25.6206871335        7.9684801273  MEMB      68              0.0000000000
      8376        68  PYPG      C212           28.5606071385      -24.6678694671        6.1003262258  MEMB      68              0.0000000000
      8377        68  PYPG      H12R           29.6185322805      -24.6131558847        6.4351716390  MEMB      68              0.0000000000
      8378        68  PYPG      H12S           28.2932678296      -23.6637510645        5.7071381953  MEMB      68              0.0000000000
      8379        68  PYPG      C213           28.5090874623      -25.7396868217        5.0164899883  MEMB      68              0.0000000000
      8380        68  PYPG      H13R           27.5373748540      -25.8351372330        4.4864095468  MEMB      68              0.0000000000
      8381        68  PYPG      H13S           28.6685873953      -26.7198097073        5.5147272320  MEMB      68              0.0000000000
      8382        68  PYPG      C214           29.6668978535      -25.3542483185        3.9695578300  MEMB      68              0.0000000000
      8383        68  PYPG      H14R           29.4249307443      -24.3081065380        3.6843203318  MEMB      68              0.0000000000
      8384        68  PYPG      H14S           30.6952839882      -25.2933037646        4.3855255180  MEMB      68              0.0000000000
      8385        68  PYPG      C215           29.5983431457      -26.2174486299        2.6740047199  MEMB      68              0.0000000000
      8386        68  PYPG      H15R           30.4986031939      -26.0754570044        2.0386357497  MEMB      68              0.0000000000
      8387        68  PYPG      H15S           28.6591294020      -25.9491901641        2.1446311972  MEMB      68              0.0000000000
      8388        68  PYPG      C216           29.5340923386      -27.7436608740        2.9869224418  MEMB      68              0.0000000000
      8389        68  PYPG      H16R           28.5308578458      -28.1723817461        3.1967791651  MEMB      68              0.0000000000
      8390        68  PYPG      H16S           30.2007084196      -27.9650118026        3.8477060489  MEMB      68              0.0000000000
      8391        68  PYPG      H16T           29.9351029542      -28.2741127863        2.0969044063  MEMB      68              0.0000000000
      8392        68  PYPG      C33            35.7121275642      -21.3096793115       13.2767613726  MEMB      68              0.0000000000
      8393        68  PYPG      H3X            36.6153676267      -21.9221216620       13.4850709392  MEMB      68              0.0000000000
      8394        68  PYPG      H3Y            35.7430483892      -20.2496143318       13.6078603275  MEMB      68              0.0000000000
      8395        68  PYPG      C34            35.6144453864      -21.4008013663       11.6941487537  MEMB      68              0.0000000000
      8396        68  PYPG      H4X            35.5479020755      -22.4820749294       11.4476940563  MEMB      68              0.0000000000
      8397        68  PYPG      H4Y            36.5946321535      -20.9400356005       11.4466620825  MEMB      68              0.0000000000
      8398        68  PYPG      C35            34.5397745904      -20.4566147631       11.1191622497  MEMB      68              0.0000000000
      8399        68  PYPG      H5X            34.7201929526      -19.4158245149       11.4634378115  MEMB      68              0.0000000000
      8400        68  PYPG      H5Y            33.5149602360      -20.7294507320       11.4502765609  MEMB      68              0.0000000000
      8401        68  PYPG      C36            34.6416082000      -20.5259221589        9.6191223647  MEMB      68              0.0000000000
      8402        68  PYPG      H6X            35.0215229178      -21.5387973160        9.3660021721  MEMB      68              0.0000000000
      8403        68  PYPG      H6Y            35.3982961679      -19.8114150737        9.2302476059  MEMB      68              0.0000000000
      8404        68  PYPG      C37            33.2663084857      -20.5225475166        8.9942491264  MEMB      68              0.0000000000
      8405        68  PYPG      H7X            32.5569115919      -21.2846202067        9.3819628417  MEMB      68              0.0000000000
      8406        68  PYPG      H7Y            32.7295738794      -19.6056045646        9.3189834568  MEMB      68              0.0000000000
      8407        68  PYPG      C38            33.2906598264      -20.6144656215        7.5418512198  MEMB      68              0.0000000000
      8408        68  PYPG      H8X            34.0983272879      -19.9682534700        7.1363824471  MEMB      68              0.0000000000
      8409        68  PYPG      H8Y            32.4028709915      -20.1740392149        7.0396791980  MEMB      68              0.0000000000
      8410        68  PYPG      C39            33.4538039726      -21.9988595732        6.9819603192  MEMB      68              0.0000000000
      8411        68  PYPG      H9X            34.3360900076      -22.3970609966        7.5272383018  MEMB      68              0.0000000000
      8412        68  PYPG      H9Y            33.7750944471      -22.0469749773        5.9195205019  MEMB      68              0.0000000000
      8413        68  PYPG      C310           32.3937121984      -22.9867782554        7.1141402658  MEMB      68              0.0000000000
      8414        68  PYPG      H10X           31.5984388991      -22.7079428326        6.3901842292  MEMB      68              0.0000000000
      8415        68  PYPG      H10Y           31.9055490469      -22.8619956176        8.1043152104  MEMB      68              0.0000000000
      8416        68  PYPG      C311           32.9231623029      -24.3928882249        6.9783138830  MEMB      68              0.0000000000
      8417        68  PYPG      H11X           32.1055279135      -25.1212460565        7.1661700635  MEMB      68              0.0000000000
      8418        68  PYPG      H11Y           33.7404280171      -24.7028592420        7.6641096308  MEMB      68              0.0000000000
      8419        68  PYPG      C312           33.4433369444      -24.6369872352        5.5022875366  MEMB      68              0.0000000000
      8420        68  PYPG      H12X           32.7321633571      -24.1823244826        4.7799061308  MEMB      68              0.0000000000
      8421        68  PYPG      H12Y           34.3614388274      -24.0246310585        5.3741077425  MEMB      68              0.0000000000
      8422        68  PYPG      C313           33.6882457354      -26.0903433415        5.0511376987  MEMB      68              0.0000000000
      8423        68  PYPG      H13X           34.5785504342      -26.5623535739        5.5189888412  MEMB      68              0.0000000000
      8424        68  PYPG      H13Y           32.7550184903      -26.6625038089        5.2409797063  MEMB      68              0.0000000000
      8425        68  PYPG      C314           33.8456914658      -26.1519709520        3.5389361976  MEMB      68              0.0000000000
      8426        68  PYPG      H14X           33.8096859708      -27.1961071352        3.1610432463  MEMB      68              0.0000000000
      8427        68  PYPG      H14Y           32.9373868565      -25.6867337978        3.0997803942  MEMB      68              0.0000000000
      8428        68  PYPG      C315           35.1637650316      -25.4326244703        3.0760147782  MEMB      68              0.0000000000
      8429        68  PYPG      H15X           35.9626974344      -25.5465976398        3.8395833404  MEMB      68              0.0000000000
      8430        68  PYPG      H15Y           35.6041345878      -25.9270288606        2.1838479537  MEMB      68              0.0000000000
      8431        68  PYPG      C316           35.1188722469      -23.8966067654        2.7119059206  MEMB      68              0.0000000000
      8432        68  PYPG      H16X           34.4139320970      -23.8155441011        1.8570323609  MEMB      68              0.0000000000
      8433        68  PYPG      H16Y           36.0979730710      -23.3937048687        2.5610019136  MEMB      68              0.0000000000
      8434        68  PYPG      H16Z           34.6899233004      -23.2772698862        3.5284513773  MEMB      68              0.0000000000
      8435        69  PMPE      N              -3.8297558415       40.7954439293       19.4735817634  MEMB      69              0.0000000000
      8436        69  PMPE      HN1            -3.0856515334       40.3089748955       20.0132640110  MEMB      69              0.0000000000
      8437        69  PMPE      HN2            -3.4031481858       41.0948285024       18.5735957943  MEMB      69              0.0000000000
      8438        69  PMPE      HN3            -4.2245052403       41.6028663308       19.9968806009  MEMB      69              0.0000000000
      8439        69  PMPE      C12            -4.9597628082       39.8925391292       19.0659857317  MEMB      69              0.0000000000
      8440        69  PMPE      H12A           -5.5622813998       40.5388986217       18.3925528945  MEMB      69              0.0000000000
      8441        69  PMPE      H12B           -5.4834121829       39.5972874176       20.0002976444  MEMB      69              0.0000000000
      8442        69  PMPE      C11            -4.3791071285       38.6057522211       18.3156601525  MEMB      69              0.0000000000
      8443        69  PMPE      H11A           -3.7813855453       38.8481982298       17.4110775076  MEMB      69              0.0000000000
      8444        69  PMPE      H11B           -5.2970629399       38.0548831464       18.0186392741  MEMB      69              0.0000000000
      8445        69  PMPE      P              -3.7182872076       36.1835993252       19.0738157308  MEMB      69              0.0000000000
      8446        69  PMPE      O13            -5.0762864843       35.9410124202       19.5973670573  MEMB      69              0.0000000000
      8447        69  PMPE      O14            -2.6323059437       35.4736975573       19.8228130999  MEMB      69              0.0000000000
      8448        69  PMPE      O11            -3.5938918208       35.7783694618       17.5417260055  MEMB      69              0.0000000000
      8449        69  PMPE      O12            -3.5898181700       37.7847401750       19.1090504609  MEMB      69              0.0000000000
      8450        69  PMPE      C1             -2.4470817647       36.2811747673       16.8288046465  MEMB      69              0.0000000000
      8451        69  PMPE      HA             -1.4763648299       36.0499484517       17.3172351944  MEMB      69              0.0000000000
      8452        69  PMPE      HB             -2.5015197942       37.3907918294       16.8184357197  MEMB      69              0.0000000000
      8453        69  PMPE      C2             -2.3511049580       35.7698794558       15.4244365127  MEMB      69              0.0000000000
      8454        69  PMPE      HS             -1.5367105983       36.3055920018       14.8914307606  MEMB      69              0.0000000000
      8455        69  PMPE      O21            -3.6457461335       35.7913856658       14.7735643194  MEMB      69              0.0000000000
      8456        69  PMPE      C21            -4.1420358576       37.0574882200       14.4827698789  MEMB      69              0.0000000000
      8457        69  PMPE      O22            -3.5331403147       38.0720466030       14.7072261583  MEMB      69              0.0000000000
      8458        69  PMPE      C22            -5.5380776478       36.9054101458       13.9759881390  MEMB      69              0.0000000000
      8459        69  PMPE      H2R            -6.3099956275       36.8232458660       14.7707914832  MEMB      69              0.0000000000
      8460        69  PMPE      H2S            -5.6189605817       35.8974366089       13.5158053487  MEMB      69              0.0000000000
      8461        69  PMPE      C3             -1.9211623845       34.2851321032       15.4416206394  MEMB      69              0.0000000000
      8462        69  PMPE      HX             -2.6034950565       33.7916669352       16.1663518243  MEMB      69              0.0000000000
      8463        69  PMPE      HY             -0.9217025461       34.1140456151       15.8956369600  MEMB      69              0.0000000000
      8464        69  PMPE      O31            -2.0230564006       33.7371812073       14.1519926773  MEMB      69              0.0000000000
      8465        69  PMPE      C31            -0.9891537927       33.8828829850       13.3193387064  MEMB      69              0.0000000000
      8466        69  PMPE      O32             0.0455165818       34.4678504803       13.5409938988  MEMB      69              0.0000000000
      8467        69  PMPE      C32            -1.4891277292       33.3545674460       12.0064215010  MEMB      69              0.0000000000
      8468        69  PMPE      H2X            -2.3978025636       32.7547257393       12.2273759187  MEMB      69              0.0000000000
      8469        69  PMPE      H2Y            -0.7037518492       32.6461231442       11.6664033679  MEMB      69              0.0000000000
      8470        69  PMPE      C23            -5.9322580206       38.1217234913       13.1611596340  MEMB      69              0.0000000000
      8471        69  PMPE      H3R            -5.9867289044       39.0211897282       13.8110166992  MEMB      69              0.0000000000
      8472        69  PMPE      H3S            -6.9676574911       37.9895928570       12.7806202359  MEMB      69              0.0000000000
      8473        69  PMPE      C24            -5.0874476348       38.6241337559       11.9018238876  MEMB      69              0.0000000000
      8474        69  PMPE      H4R            -4.7300352496       37.8116214086       11.2336909885  MEMB      69              0.0000000000
      8475        69  PMPE      H4S            -4.1721859638       39.0461739767       12.3692624139  MEMB      69              0.0000000000
      8476        69  PMPE      C25            -5.8120210039       39.6580698875       10.9485577248  MEMB      69              0.0000000000
      8477        69  PMPE      H5R            -5.6355567869       40.6417624638       11.4338730723  MEMB      69              0.0000000000
      8478        69  PMPE      H5S            -6.8711487912       39.3636265245       10.7877080602  MEMB      69              0.0000000000
      8479        69  PMPE      C26            -5.2381004510       39.6891907656        9.5819710872  MEMB      69              0.0000000000
      8480        69  PMPE      H6R            -5.4588916360       38.7074028130        9.1111579885  MEMB      69              0.0000000000
      8481        69  PMPE      H6S            -4.2082675794       40.1060376278        9.5839683622  MEMB      69              0.0000000000
      8482        69  PMPE      C27            -5.9257045028       40.6720789989        8.5950313028  MEMB      69              0.0000000000
      8483        69  PMPE      H7R            -5.6585845956       41.7203075458        8.8483776889  MEMB      69              0.0000000000
      8484        69  PMPE      H7S            -7.0087121265       40.6682416891        8.8428232872  MEMB      69              0.0000000000
      8485        69  PMPE      C28            -5.8277547855       40.4773660690        7.0659287309  MEMB      69              0.0000000000
      8486        69  PMPE      H8R            -6.2468368353       41.4781259421        6.8268239723  MEMB      69              0.0000000000
      8487        69  PMPE      H8S            -6.5688969204       39.7054874585        6.7672099359  MEMB      69              0.0000000000
      8488        69  PMPE      C29            -4.3517950621       40.3799352442        6.5975803851  MEMB      69              0.0000000000
      8489        69  PMPE      H9R            -3.9743249425       39.3909065852        6.9347146255  MEMB      69              0.0000000000
      8490        69  PMPE      C217           -3.5482475952       41.5590884486        6.9354615631  MEMB      69              0.0000000000
      8491        69  PMPE      H17R           -2.5971104545       41.3038654168        7.3861140433  MEMB      69              0.0000000000
      8492        69  PMPE      H17S           -4.0723193916       42.4907655835        7.1092881951  MEMB      69              0.0000000000
      8493        69  PMPE      C210           -3.7295712311       41.1063444405        5.4277813014  MEMB      69              0.0000000000
      8494        69  PMPE      H10R           -2.8186355030       40.6510887122        4.9836415188  MEMB      69              0.0000000000
      8495        69  PMPE      C211           -4.7288479447       41.8022726781        4.5314880347  MEMB      69              0.0000000000
      8496        69  PMPE      H11R           -4.1019221532       42.3515153941        3.7969017803  MEMB      69              0.0000000000
      8497        69  PMPE      H11S           -5.3602737277       42.5261644489        5.0897024612  MEMB      69              0.0000000000
      8498        69  PMPE      C212           -5.6251540860       40.7924406479        3.7075660509  MEMB      69              0.0000000000
      8499        69  PMPE      H12R           -6.6305806126       41.2647567924        3.6886984111  MEMB      69              0.0000000000
      8500        69  PMPE      H12S           -5.7848324035       39.8206977941        4.2219001839  MEMB      69              0.0000000000
      8501        69  PMPE      C213           -5.0545891335       40.5782781906        2.3489197449  MEMB      69              0.0000000000
      8502        69  PMPE      H13R           -4.1664317420       39.9110504022        2.3663761094  MEMB      69              0.0000000000
      8503        69  PMPE      H13S           -4.7083349330       41.5372987241        1.9076612392  MEMB      69              0.0000000000
      8504        69  PMPE      C214           -5.9998501046       39.7101642729        1.4874972675  MEMB      69              0.0000000000
      8505        69  PMPE      H14R           -7.0649187917       40.0042441593        1.6035437853  MEMB      69              0.0000000000
      8506        69  PMPE      H14S           -5.8108135815       38.6378441846        1.7082147428  MEMB      69              0.0000000000
      8507        69  PMPE      C215           -5.6627568570       39.9839848225       -0.0296434528  MEMB      69              0.0000000000
      8508        69  PMPE      H15R           -4.6915493007       39.4982725691       -0.2645050010  MEMB      69              0.0000000000
      8509        69  PMPE      H15S           -5.7697079054       41.0306796704       -0.3864518861  MEMB      69              0.0000000000
      8510        69  PMPE      C216           -6.6785298191       39.2386551863       -0.9194375135  MEMB      69              0.0000000000
      8511        69  PMPE      H16R           -7.6998691526       39.5950812672       -0.6661628370  MEMB      69              0.0000000000
      8512        69  PMPE      H16S           -6.5780645168       39.3918679731       -2.0152261953  MEMB      69              0.0000000000
      8513        69  PMPE      H16T           -6.6272710214       38.1336538741       -0.8161646135  MEMB      69              0.0000000000
      8514        69  PMPE      C33            -1.6785803414       34.5854399597       11.1031440566  MEMB      69              0.0000000000
      8515        69  PMPE      H3X            -1.7671603120       34.2433442862       10.0498421433  MEMB      69              0.0000000000
      8516        69  PMPE      H3Y            -0.7444064415       35.1705508198       10.9642715943  MEMB      69              0.0000000000
      8517        69  PMPE      C34            -2.9613457868       35.4163052564       11.2341131173  MEMB      69              0.0000000000
      8518        69  PMPE      H4X            -2.7686746221       36.4592292820       10.9031929693  MEMB      69              0.0000000000
      8519        69  PMPE      H4Y            -3.1852182385       35.5161198988       12.3177364392  MEMB      69              0.0000000000
      8520        69  PMPE      C35            -4.1462506535       34.8056525630       10.6454050190  MEMB      69              0.0000000000
      8521        69  PMPE      H5X            -5.1187708925       34.9703343305       11.1566828397  MEMB      69              0.0000000000
      8522        69  PMPE      H5Y            -4.1366637316       33.7045958741       10.7934026615  MEMB      69              0.0000000000
      8523        69  PMPE      C36            -4.2731674964       35.2737918719        9.1812620357  MEMB      69              0.0000000000
      8524        69  PMPE      H6X            -3.4095462882       34.8956621672        8.5934710238  MEMB      69              0.0000000000
      8525        69  PMPE      H6Y            -4.2635819962       36.3809346613        9.0892613882  MEMB      69              0.0000000000
      8526        69  PMPE      C37            -5.6194915669       34.8053237402        8.5514714656  MEMB      69              0.0000000000
      8527        69  PMPE      H7X            -6.4947362940       35.0368813238        9.1954037112  MEMB      69              0.0000000000
      8528        69  PMPE      H7Y            -5.5813736407       33.6972504027        8.4804658402  MEMB      69              0.0000000000
      8529        69  PMPE      C38            -5.9675220498       35.1939569386        7.0432106788  MEMB      69              0.0000000000
      8530        69  PMPE      H8X            -6.9091819457       34.6623757910        6.7882228594  MEMB      69              0.0000000000
      8531        69  PMPE      H8Y            -5.1000168412       34.9399321832        6.3972801525  MEMB      69              0.0000000000
      8532        69  PMPE      C39            -6.2141371170       36.7083402784        6.9134921201  MEMB      69              0.0000000000
      8533        69  PMPE      H9X            -5.2977009873       37.3307845892        6.9973302789  MEMB      69              0.0000000000
      8534        69  PMPE      H9Y            -6.9744283636       37.0125806209        7.6643020441  MEMB      69              0.0000000000
      8535        69  PMPE      C310           -6.7941473018       37.0319845859        5.5825198673  MEMB      69              0.0000000000
      8536        69  PMPE      H10X           -6.8857479880       38.1380733422        5.5325384537  MEMB      69              0.0000000000
      8537        69  PMPE      H10Y           -7.7961974737       36.5856880129        5.4063479545  MEMB      69              0.0000000000
      8538        69  PMPE      C311           -5.8371367568       36.6379238894        4.3325544667  MEMB      69              0.0000000000
      8539        69  PMPE      H11X           -6.4567926841       36.9565772582        3.4672176553  MEMB      69              0.0000000000
      8540        69  PMPE      H11Y           -5.8072523198       35.5312261100        4.2395592994  MEMB      69              0.0000000000
      8541        69  PMPE      C312           -4.4248008708       37.2652955926        4.2909786422  MEMB      69              0.0000000000
      8542        69  PMPE      H12X           -4.0778663067       37.3542949768        5.3426612728  MEMB      69              0.0000000000
      8543        69  PMPE      H12Y           -4.3321716552       38.3268382390        3.9765461165  MEMB      69              0.0000000000
      8544        69  PMPE      C313           -3.3360875757       36.5430533849        3.4137738564  MEMB      69              0.0000000000
      8545        69  PMPE      H13X           -3.0644534161       35.6098958034        3.9520610667  MEMB      69              0.0000000000
      8546        69  PMPE      H13Y           -2.4860150387       37.2558999068        3.3542123602  MEMB      69              0.0000000000
      8547        69  PMPE      C314           -3.8273999618       36.0224142168        2.0652240387  MEMB      69              0.0000000000
      8548        69  PMPE      H14X           -3.9281809816       36.8376692436        1.3172106953  MEMB      69              0.0000000000
      8549        69  PMPE      H14Y           -4.8472962000       35.5873983324        2.1351801726  MEMB      69              0.0000000000
      8550        69  PMPE      C315           -2.8326260585       34.9729898887        1.5384410193  MEMB      69              0.0000000000
      8551        69  PMPE      H15X           -3.3727226688       34.3131841326        0.8262106057  MEMB      69              0.0000000000
      8552        69  PMPE      H15Y           -2.4261691415       34.2985216881        2.3221545403  MEMB      69              0.0000000000
      8553        69  PMPE      C316           -1.6573286780       35.5979957308        0.7669058254  MEMB      69              0.0000000000
      8554        69  PMPE      H16X           -1.0271664810       34.7597490250        0.4000819868  MEMB      69              0.0000000000
      8555        69  PMPE      H16Y           -0.9908614559       36.0801278961        1.5136926546  MEMB      69              0.0000000000
      8556        69  PMPE      H16Z           -1.9316944835       36.3159188236       -0.0353601634  MEMB      69              0.0000000000
      8557        70  PMPE      N              31.6682672883       18.5725086944       20.5031453266  MEMB      70              0.0000000000
      8558        70  PMPE      HN1            31.8577213040       19.1666785211       19.6708776901  MEMB      70              0.0000000000
      8559        70  PMPE      HN2            31.0378421031       19.1965338619       21.0460601376  MEMB      70              0.0000000000
      8560        70  PMPE      HN3            32.5998361913       18.3084180060       20.8826655394  MEMB      70              0.0000000000
      8561        70  PMPE      C12            30.9292166998       17.3604888978       20.0373820413  MEMB      70              0.0000000000
      8562        70  PMPE      H12A           29.9418365303       17.6726837649       19.6349697437  MEMB      70              0.0000000000
      8563        70  PMPE      H12B           30.9208950704       16.7111965703       20.9388647537  MEMB      70              0.0000000000
      8564        70  PMPE      C11            31.8160803241       16.6977994399       18.9490095713  MEMB      70              0.0000000000
      8565        70  PMPE      H11A           31.8266504832       17.4085392713       18.0951605928  MEMB      70              0.0000000000
      8566        70  PMPE      H11B           31.3644213792       15.7359847927       18.6246058308  MEMB      70              0.0000000000
      8567        70  PMPE      P              34.2596671183       15.9599730398       18.4797770457  MEMB      70              0.0000000000
      8568        70  PMPE      O13            33.8145604756       15.1073026271       17.3544909152  MEMB      70              0.0000000000
      8569        70  PMPE      O14            35.3118745710       15.4511377754       19.3491296342  MEMB      70              0.0000000000
      8570        70  PMPE      O11            34.8000041169       17.3672214697       17.9347063260  MEMB      70              0.0000000000
      8571        70  PMPE      O12            33.1253893978       16.4442288474       19.3923591310  MEMB      70              0.0000000000
      8572        70  PMPE      C1             35.3513990262       18.4273708465       18.7515552108  MEMB      70              0.0000000000
      8573        70  PMPE      HA             36.2875527474       18.0898384334       19.2455278915  MEMB      70              0.0000000000
      8574        70  PMPE      HB             34.6265869879       18.8254222178       19.4935279567  MEMB      70              0.0000000000
      8575        70  PMPE      C2             35.7272276649       19.5499690552       17.7289355306  MEMB      70              0.0000000000
      8576        70  PMPE      HS             35.7604669129       20.5176408137       18.2737546409  MEMB      70              0.0000000000
      8577        70  PMPE      O21            34.9225419171       19.5610257177       16.6147116057  MEMB      70              0.0000000000
      8578        70  PMPE      C21            33.6496969114       19.8271786047       16.7410015439  MEMB      70              0.0000000000
      8579        70  PMPE      O22            33.0719416748       20.1292059593       17.7621488197  MEMB      70              0.0000000000
      8580        70  PMPE      C22            32.9401875674       19.4207524959       15.4151985350  MEMB      70              0.0000000000
      8581        70  PMPE      H2R            31.8528225684       19.6410193619       15.4738567193  MEMB      70              0.0000000000
      8582        70  PMPE      H2S            33.0043038551       18.3175720745       15.3002938684  MEMB      70              0.0000000000
      8583        70  PMPE      C3             37.1175354633       19.2376268836       17.2575805443  MEMB      70              0.0000000000
      8584        70  PMPE      HX             37.7670398365       19.2433981186       18.1589305947  MEMB      70              0.0000000000
      8585        70  PMPE      HY             37.4331853933       20.0652488831       16.5869626340  MEMB      70              0.0000000000
      8586        70  PMPE      O31            37.1467441776       17.9378104330       16.6274164882  MEMB      70              0.0000000000
      8587        70  PMPE      C31            37.5139583746       17.8509248949       15.3926685731  MEMB      70              0.0000000000
      8588        70  PMPE      O32            37.9607588766       18.7732899058       14.7523858942  MEMB      70              0.0000000000
      8589        70  PMPE      C32            37.2669143213       16.3857006813       14.8221759575  MEMB      70              0.0000000000
      8590        70  PMPE      H2X            36.1968243622       16.1483070434       15.0034836817  MEMB      70              0.0000000000
      8591        70  PMPE      H2Y            38.0051990403       15.7596701817       15.3674671012  MEMB      70              0.0000000000
      8592        70  PMPE      C23            33.6434795539       20.0650602520       14.1796948878  MEMB      70              0.0000000000
      8593        70  PMPE      H3R            34.6999775255       19.7402078656       14.0674269130  MEMB      70              0.0000000000
      8594        70  PMPE      H3S            33.6658962519       21.1718262742       14.2739675127  MEMB      70              0.0000000000
      8595        70  PMPE      C24            32.9949594345       19.7534660145       12.8513420052  MEMB      70              0.0000000000
      8596        70  PMPE      H4R            31.9634822872       20.1506589790       12.9636530916  MEMB      70              0.0000000000
      8597        70  PMPE      H4S            32.9266509348       18.6515755882       12.7268731711  MEMB      70              0.0000000000
      8598        70  PMPE      C25            33.6104959654       20.5518349115       11.7261515167  MEMB      70              0.0000000000
      8599        70  PMPE      H5R            34.6634122323       20.2168491036       11.6100788342  MEMB      70              0.0000000000
      8600        70  PMPE      H5S            33.6407195558       21.6287087307       11.9977214964  MEMB      70              0.0000000000
      8601        70  PMPE      C26            32.8067019302       20.5299208324       10.3930127782  MEMB      70              0.0000000000
      8602        70  PMPE      H6R            31.7595731890       20.8561519380       10.5702576473  MEMB      70              0.0000000000
      8603        70  PMPE      H6S            32.6216721709       19.4672870262       10.1267526924  MEMB      70              0.0000000000
      8604        70  PMPE      C27            33.2864438781       21.3381072139        9.1707148453  MEMB      70              0.0000000000
      8605        70  PMPE      H7R            34.3297007022       21.1506154693        8.8378743598  MEMB      70              0.0000000000
      8606        70  PMPE      H7S            33.3600920146       22.4378025763        9.3105968571  MEMB      70              0.0000000000
      8607        70  PMPE      C28            32.5926335090       20.8237232400        7.8473511726  MEMB      70              0.0000000000
      8608        70  PMPE      H8R            32.6284462958       19.7222924599        7.7063237754  MEMB      70              0.0000000000
      8609        70  PMPE      H8S            33.1061938373       21.3790247271        7.0335844418  MEMB      70              0.0000000000
      8610        70  PMPE      C29            31.2120023555       21.4277800295        7.6968740891  MEMB      70              0.0000000000
      8611        70  PMPE      H9R            31.0795353876       22.4232642385        8.1720423906  MEMB      70              0.0000000000
      8612        70  PMPE      C217           30.1408242466       20.3906692945        8.1423911747  MEMB      70              0.0000000000
      8613        70  PMPE      H17R           29.2468592481       20.8847295563        8.5024192204  MEMB      70              0.0000000000
      8614        70  PMPE      H17S           30.3723163616       19.3328890210        8.1223593578  MEMB      70              0.0000000000
      8615        70  PMPE      C210           30.2841371786       21.0155887123        6.6689202422  MEMB      70              0.0000000000
      8616        70  PMPE      H10R           29.3996732060       21.6595107866        6.4755059734  MEMB      70              0.0000000000
      8617        70  PMPE      C211           30.8342503336       20.0476740686        5.5894376854  MEMB      70              0.0000000000
      8618        70  PMPE      H11R           29.9573318741       19.5347726276        5.1396965549  MEMB      70              0.0000000000
      8619        70  PMPE      H11S           31.4352773376       19.3002469181        6.1501882916  MEMB      70              0.0000000000
      8620        70  PMPE      C212           31.5904603945       20.7576050259        4.4903631443  MEMB      70              0.0000000000
      8621        70  PMPE      H12R           32.4823944081       21.3073437426        4.8599067281  MEMB      70              0.0000000000
      8622        70  PMPE      H12S           31.0610656240       21.5204820697        3.8803796748  MEMB      70              0.0000000000
      8623        70  PMPE      C213           32.2793477113       19.7810465481        3.5200550535  MEMB      70              0.0000000000
      8624        70  PMPE      H13R           31.4495358771       19.2635080457        2.9929041964  MEMB      70              0.0000000000
      8625        70  PMPE      H13S           32.6285668758       18.9556321124        4.1766051534  MEMB      70              0.0000000000
      8626        70  PMPE      C214           33.2388926784       20.4345819177        2.5605923071  MEMB      70              0.0000000000
      8627        70  PMPE      H14R           34.1375208115       20.8514926725        3.0635575031  MEMB      70              0.0000000000
      8628        70  PMPE      H14S           32.7058514269       21.3612904655        2.2582695677  MEMB      70              0.0000000000
      8629        70  PMPE      C215           33.6006863822       19.6084121008        1.3429148039  MEMB      70              0.0000000000
      8630        70  PMPE      H15R           32.6913606133       19.4478807515        0.7251140902  MEMB      70              0.0000000000
      8631        70  PMPE      H15S           34.0432167118       18.6699995917        1.7402438353  MEMB      70              0.0000000000
      8632        70  PMPE      C216           34.7355853852       20.2592240178        0.5681204710  MEMB      70              0.0000000000
      8633        70  PMPE      H16R           35.5528267568       20.6394940204        1.2176060082  MEMB      70              0.0000000000
      8634        70  PMPE      H16S           35.1505290877       19.4137423416       -0.0212032081  MEMB      70              0.0000000000
      8635        70  PMPE      H16T           34.2973899992       21.0047718064       -0.1293493887  MEMB      70              0.0000000000
      8636        70  PMPE      C33            37.5022436789       16.4914189782       13.3318233292  MEMB      70              0.0000000000
      8637        70  PMPE      H3X            38.5586745801       16.7543291818       13.1101183654  MEMB      70              0.0000000000
      8638        70  PMPE      H3Y            36.9311429052       17.3646256161       12.9501493513  MEMB      70              0.0000000000
      8639        70  PMPE      C34            36.9759535800       15.2305315089       12.6116274090  MEMB      70              0.0000000000
      8640        70  PMPE      H4X            36.3192835923       14.6272569564       13.2743228116  MEMB      70              0.0000000000
      8641        70  PMPE      H4Y            37.8676003769       14.6198721810       12.3539806408  MEMB      70              0.0000000000
      8642        70  PMPE      C35            36.1882904375       15.6119605767       11.3497043721  MEMB      70              0.0000000000
      8643        70  PMPE      H5X            35.8741425110       14.6713776902       10.8487691928  MEMB      70              0.0000000000
      8644        70  PMPE      H5Y            36.8761555417       15.9902169314       10.5635206808  MEMB      70              0.0000000000
      8645        70  PMPE      C36            34.9751195774       16.5218939174       11.4449526063  MEMB      70              0.0000000000
      8646        70  PMPE      H6X            35.3078766335       17.5818812041       11.4494891570  MEMB      70              0.0000000000
      8647        70  PMPE      H6Y            34.4175196576       16.2553138484       12.3681740674  MEMB      70              0.0000000000
      8648        70  PMPE      C37            33.9506628778       16.5139613471       10.2855395618  MEMB      70              0.0000000000
      8649        70  PMPE      H7X            33.1510920704       17.2377272961       10.5523174707  MEMB      70              0.0000000000
      8650        70  PMPE      H7Y            33.5455691306       15.4803163466       10.3279410454  MEMB      70              0.0000000000
      8651        70  PMPE      C38            34.5651914236       16.9684557540        8.9290294935  MEMB      70              0.0000000000
      8652        70  PMPE      H8X            35.4538047198       16.3432316238        8.6971195649  MEMB      70              0.0000000000
      8653        70  PMPE      H8Y            34.8445277624       18.0395618973        9.0240239159  MEMB      70              0.0000000000
      8654        70  PMPE      C39            33.6015124830       16.7891591654        7.7265419616  MEMB      70              0.0000000000
      8655        70  PMPE      H9X            34.0280820145       17.4280769165        6.9239564653  MEMB      70              0.0000000000
      8656        70  PMPE      H9Y            32.5702708846       17.0483428594        8.0485443991  MEMB      70              0.0000000000
      8657        70  PMPE      C310           33.5586008376       15.2792494707        7.3485209099  MEMB      70              0.0000000000
      8658        70  PMPE      H10X           33.0586417029       14.5982908415        8.0700867565  MEMB      70              0.0000000000
      8659        70  PMPE      H10Y           34.5615545286       14.8382105628        7.1644299161  MEMB      70              0.0000000000
      8660        70  PMPE      C311           32.7976469994       15.0312365794        5.9926099586  MEMB      70              0.0000000000
      8661        70  PMPE      H11X           32.4126922076       13.9890657489        5.9959143014  MEMB      70              0.0000000000
      8662        70  PMPE      H11Y           33.5129423085       15.1723639802        5.1543037568  MEMB      70              0.0000000000
      8663        70  PMPE      C312           31.6445832211       16.0261488247        5.7611217094  MEMB      70              0.0000000000
      8664        70  PMPE      H12X           31.9784104645       17.0836493325        5.6934972956  MEMB      70              0.0000000000
      8665        70  PMPE      H12Y           30.9588988112       15.8750462353        6.6221244542  MEMB      70              0.0000000000
      8666        70  PMPE      C313           30.9222219621       15.8867667243        4.3916510731  MEMB      70              0.0000000000
      8667        70  PMPE      H13X           30.1500494214       16.6761551017        4.2694368813  MEMB      70              0.0000000000
      8668        70  PMPE      H13Y           30.4536876793       14.8803749940        4.3472424667  MEMB      70              0.0000000000
      8669        70  PMPE      C314           31.9679012806       16.0535965622        3.2607491936  MEMB      70              0.0000000000
      8670        70  PMPE      H14X           32.5977527782       15.1416387115        3.3378256580  MEMB      70              0.0000000000
      8671        70  PMPE      H14Y           32.5667262424       16.9890376944        3.2868182430  MEMB      70              0.0000000000
      8672        70  PMPE      C315           31.3118544121       15.8804401651        1.8664759128  MEMB      70              0.0000000000
      8673        70  PMPE      H15X           30.6861758361       14.9634040107        1.8229824169  MEMB      70              0.0000000000
      8674        70  PMPE      H15Y           32.1696516344       15.8168150105        1.1632990152  MEMB      70              0.0000000000
      8675        70  PMPE      C316           30.3790744505       16.9884536125        1.2770358110  MEMB      70              0.0000000000
      8676        70  PMPE      H16X           29.8236503265       16.6444334920        0.3784399557  MEMB      70              0.0000000000
      8677        70  PMPE      H16Y           30.8978877763       17.9352632186        1.0149193981  MEMB      70              0.0000000000
      8678        70  PMPE      H16Z           29.6095650533       17.1291784721        2.0659422686  MEMB      70              0.0000000000
      8679        71  PMPE      N             -31.3425380980      -24.2742485206       18.2301134351  MEMB      71              0.0000000000
      8680        71  PMPE      HN1           -30.9932047347      -23.2946893293       18.2355840232  MEMB      71              0.0000000000
      8681        71  PMPE      HN2           -31.0139769347      -24.6366214201       17.3123263269  MEMB      71              0.0000000000
      8682        71  PMPE      HN3           -32.3812504667      -24.2750979817       18.2818469792  MEMB      71              0.0000000000
      8683        71  PMPE      C12           -30.6536712921      -25.0822267847       19.2033708819  MEMB      71              0.0000000000
      8684        71  PMPE      H12A          -31.0283995691      -26.1278312570       19.2280962330  MEMB      71              0.0000000000
      8685        71  PMPE      H12B          -30.7729316520      -24.6639457722       20.2256912716  MEMB      71              0.0000000000
      8686        71  PMPE      C11           -29.1134130143      -25.2447152948       18.9335739519  MEMB      71              0.0000000000
      8687        71  PMPE      H11A          -29.0145425391      -25.4962981847       17.8559600707  MEMB      71              0.0000000000
      8688        71  PMPE      H11B          -28.7132052584      -26.0177595237       19.6239052657  MEMB      71              0.0000000000
      8689        71  PMPE      P             -26.9131592039      -23.8093142403       19.1991322424  MEMB      71              0.0000000000
      8690        71  PMPE      O13           -26.2889281346      -24.9631419788       19.8748308921  MEMB      71              0.0000000000
      8691        71  PMPE      O14           -26.4527377816      -22.5177642284       19.6967797195  MEMB      71              0.0000000000
      8692        71  PMPE      O11           -26.5718738151      -23.9048284557       17.6669111637  MEMB      71              0.0000000000
      8693        71  PMPE      O12           -28.5593506617      -23.9855036930       19.1952877121  MEMB      71              0.0000000000
      8694        71  PMPE      C1            -27.2730252083      -23.1211384078       16.7590320320  MEMB      71              0.0000000000
      8695        71  PMPE      HA            -27.0610778714      -22.0620987132       17.0194822883  MEMB      71              0.0000000000
      8696        71  PMPE      HB            -28.3663245602      -23.2216495573       16.9290764885  MEMB      71              0.0000000000
      8697        71  PMPE      C2            -26.7136071651      -23.4048300319       15.3073484767  MEMB      71              0.0000000000
      8698        71  PMPE      HS            -27.1581466899      -22.8474112697       14.4552979857  MEMB      71              0.0000000000
      8699        71  PMPE      O21           -27.0209942791      -24.7334680851       14.9194372869  MEMB      71              0.0000000000
      8700        71  PMPE      C21           -28.3451839177      -25.1360517907       14.8307270432  MEMB      71              0.0000000000
      8701        71  PMPE      O22           -29.2997937406      -24.4021637207       14.6894608380  MEMB      71              0.0000000000
      8702        71  PMPE      C22           -28.3791902180      -26.6576777231       14.6553348563  MEMB      71              0.0000000000
      8703        71  PMPE      H2R           -28.3455421291      -27.1296538492       15.6605350554  MEMB      71              0.0000000000
      8704        71  PMPE      H2S           -27.4958183159      -27.0358794589       14.0977163797  MEMB      71              0.0000000000
      8705        71  PMPE      C3            -25.1873039736      -23.1531962729       15.3122902760  MEMB      71              0.0000000000
      8706        71  PMPE      HX            -24.7404742376      -23.6776441168       16.1838514892  MEMB      71              0.0000000000
      8707        71  PMPE      HY            -25.0910724912      -22.0585915537       15.4763059304  MEMB      71              0.0000000000
      8708        71  PMPE      O31           -24.6926540474      -23.7281523010       14.1406111560  MEMB      71              0.0000000000
      8709        71  PMPE      C31           -24.5151860822      -22.8428459736       13.1032383759  MEMB      71              0.0000000000
      8710        71  PMPE      O32           -24.7210941131      -21.6491864868       13.1109995320  MEMB      71              0.0000000000
      8711        71  PMPE      C32           -23.8581219629      -23.6592097048       11.8906188573  MEMB      71              0.0000000000
      8712        71  PMPE      H2X           -23.8424518663      -24.7490247352       12.1059761864  MEMB      71              0.0000000000
      8713        71  PMPE      H2Y           -22.8201568005      -23.2705727560       11.9675023457  MEMB      71              0.0000000000
      8714        71  PMPE      C23           -29.5906337038      -27.2006771518       13.8627350327  MEMB      71              0.0000000000
      8715        71  PMPE      H3R           -30.4819592137      -26.8675047629       14.4361947758  MEMB      71              0.0000000000
      8716        71  PMPE      H3S           -29.7486510183      -28.2982698732       13.9308664533  MEMB      71              0.0000000000
      8717        71  PMPE      C24           -29.6482343768      -26.7588724526       12.4223357686  MEMB      71              0.0000000000
      8718        71  PMPE      H4R           -28.8839891479      -27.3420188529       11.8653884799  MEMB      71              0.0000000000
      8719        71  PMPE      H4S           -29.4856193903      -25.6668702942       12.2982043265  MEMB      71              0.0000000000
      8720        71  PMPE      C25           -30.9263636362      -27.1376227804       11.6254685305  MEMB      71              0.0000000000
      8721        71  PMPE      H5R           -31.8127978284      -26.7325686442       12.1588415749  MEMB      71              0.0000000000
      8722        71  PMPE      H5S           -31.0553248744      -28.2257267325       11.4418375500  MEMB      71              0.0000000000
      8723        71  PMPE      C26           -30.8564252878      -26.6292401009       10.2069948330  MEMB      71              0.0000000000
      8724        71  PMPE      H6R           -29.8069214968      -26.5800414684        9.8458268770  MEMB      71              0.0000000000
      8725        71  PMPE      H6S           -31.1371442393      -25.5656853059       10.3631007215  MEMB      71              0.0000000000
      8726        71  PMPE      C27           -31.8510872157      -27.3192594542        9.3122933297  MEMB      71              0.0000000000
      8727        71  PMPE      H7R           -32.8458054994      -27.2416477156        9.8009984395  MEMB      71              0.0000000000
      8728        71  PMPE      H7S           -31.7140808053      -28.3897225499        9.0483636762  MEMB      71              0.0000000000
      8729        71  PMPE      C28           -31.8324782930      -26.7714076217        7.8402521517  MEMB      71              0.0000000000
      8730        71  PMPE      H8R           -32.6041698736      -27.3326305816        7.2711818467  MEMB      71              0.0000000000
      8731        71  PMPE      H8S           -30.9020568561      -27.1815137583        7.3925363219  MEMB      71              0.0000000000
      8732        71  PMPE      C29           -31.8198911804      -25.2457409028        7.6312313560  MEMB      71              0.0000000000
      8733        71  PMPE      H9R           -31.0318815880      -24.6303789974        8.1156822320  MEMB      71              0.0000000000
      8734        71  PMPE      C217          -33.2130111670      -24.7492775958        7.8630404523  MEMB      71              0.0000000000
      8735        71  PMPE      H17R          -33.2556772495      -23.8799046813        8.5074461663  MEMB      71              0.0000000000
      8736        71  PMPE      H17S          -33.8854801193      -25.5937906382        7.7765994119  MEMB      71              0.0000000000
      8737        71  PMPE      C210          -32.6443385111      -24.5934865354        6.5013494782  MEMB      71              0.0000000000
      8738        71  PMPE      H10R          -32.2155718860      -23.6192418740        6.1830300039  MEMB      71              0.0000000000
      8739        71  PMPE      C211          -33.3477106160      -25.3321375690        5.2913342744  MEMB      71              0.0000000000
      8740        71  PMPE      H11R          -33.9160941260      -24.6261443647        4.6488116346  MEMB      71              0.0000000000
      8741        71  PMPE      H11S          -34.0976742555      -26.0686635852        5.6510626150  MEMB      71              0.0000000000
      8742        71  PMPE      C212          -32.4143811970      -26.1034361025        4.3978020011  MEMB      71              0.0000000000
      8743        71  PMPE      H12R          -32.8315716989      -26.3393300891        3.3954903266  MEMB      71              0.0000000000
      8744        71  PMPE      H12S          -32.2387687702      -26.9872299057        5.0477169832  MEMB      71              0.0000000000
      8745        71  PMPE      C213          -30.9747655057      -25.5381008983        4.1235716906  MEMB      71              0.0000000000
      8746        71  PMPE      H13R          -30.5371941407      -25.2541559503        5.1045038126  MEMB      71              0.0000000000
      8747        71  PMPE      H13S          -31.1532755140      -24.5887262766        3.5748067874  MEMB      71              0.0000000000
      8748        71  PMPE      C214          -30.0633653593      -26.4480602080        3.2950367994  MEMB      71              0.0000000000
      8749        71  PMPE      H14R          -30.0782452745      -27.4776619054        3.7121928879  MEMB      71              0.0000000000
      8750        71  PMPE      H14S          -29.0341404261      -26.0435028960        3.1884990749  MEMB      71              0.0000000000
      8751        71  PMPE      C215          -30.5005579352      -26.5791455972        1.7802497391  MEMB      71              0.0000000000
      8752        71  PMPE      H15R          -30.8933905753      -25.5871678214        1.4704377649  MEMB      71              0.0000000000
      8753        71  PMPE      H15S          -31.4695261395      -27.1225654655        1.7910484488  MEMB      71              0.0000000000
      8754        71  PMPE      C216          -29.4482967282      -27.1193951083        0.8042937692  MEMB      71              0.0000000000
      8755        71  PMPE      H16R          -29.3326810259      -28.2184332223        0.9186146538  MEMB      71              0.0000000000
      8756        71  PMPE      H16S          -29.7330471710      -26.9358532379       -0.2537947395  MEMB      71              0.0000000000
      8757        71  PMPE      H16T          -28.4325525132      -26.7815646701        1.1017071645  MEMB      71              0.0000000000
      8758        71  PMPE      C33           -24.7331135465      -23.2354837562       10.6521582476  MEMB      71              0.0000000000
      8759        71  PMPE      H3X           -24.1346060865      -23.5386032079        9.7665919420  MEMB      71              0.0000000000
      8760        71  PMPE      H3Y           -24.7956957889      -22.1300329823       10.5606004068  MEMB      71              0.0000000000
      8761        71  PMPE      C34           -26.1456954777      -23.8438380810       10.5612026338  MEMB      71              0.0000000000
      8762        71  PMPE      H4X           -26.4764667055      -23.5484762036        9.5425402526  MEMB      71              0.0000000000
      8763        71  PMPE      H4Y           -26.8723239763      -23.3313425234       11.2272956924  MEMB      71              0.0000000000
      8764        71  PMPE      C35           -26.1726853345      -25.3884034783       10.7295504622  MEMB      71              0.0000000000
      8765        71  PMPE      H5X           -27.2371273626      -25.6931852773       10.8211598774  MEMB      71              0.0000000000
      8766        71  PMPE      H5Y           -25.7020539109      -25.8145558401       11.6412636732  MEMB      71              0.0000000000
      8767        71  PMPE      C36           -25.5657679399      -26.1524308805        9.6044488570  MEMB      71              0.0000000000
      8768        71  PMPE      H6X           -25.3812660296      -27.2096209126        9.8919012738  MEMB      71              0.0000000000
      8769        71  PMPE      H6Y           -24.6017071188      -25.6862738564        9.3084668898  MEMB      71              0.0000000000
      8770        71  PMPE      C37           -26.4822661729      -26.2516036387        8.3528270841  MEMB      71              0.0000000000
      8771        71  PMPE      H7X           -26.6586418580      -25.1930545879        8.0652747547  MEMB      71              0.0000000000
      8772        71  PMPE      H7Y           -27.4998933960      -26.6633336765        8.5238071650  MEMB      71              0.0000000000
      8773        71  PMPE      C38           -25.7300442474      -27.0130200691        7.2740547327  MEMB      71              0.0000000000
      8774        71  PMPE      H8X           -25.2174364876      -27.8351560914        7.8177884332  MEMB      71              0.0000000000
      8775        71  PMPE      H8Y           -24.9336280085      -26.3560045113        6.8637221580  MEMB      71              0.0000000000
      8776        71  PMPE      C39           -26.6403325577      -27.5427261970        6.1404675172  MEMB      71              0.0000000000
      8777        71  PMPE      H9X           -27.0137939650      -26.5613835436        5.7774050226  MEMB      71              0.0000000000
      8778        71  PMPE      H9Y           -27.4701910431      -28.1928070369        6.4912534454  MEMB      71              0.0000000000
      8779        71  PMPE      C310          -25.8586773224      -28.2002088023        4.9575141149  MEMB      71              0.0000000000
      8780        71  PMPE      H10X          -26.5421202373      -28.5106236816        4.1384483723  MEMB      71              0.0000000000
      8781        71  PMPE      H10Y          -25.3072456356      -29.0692236890        5.3759125443  MEMB      71              0.0000000000
      8782        71  PMPE      C311          -25.1134419316      -27.1879065102        4.1654295907  MEMB      71              0.0000000000
      8783        71  PMPE      H11X          -24.4055315279      -27.7664168784        3.5341540466  MEMB      71              0.0000000000
      8784        71  PMPE      H11Y          -24.5348660725      -26.5960636361        4.9065734346  MEMB      71              0.0000000000
      8785        71  PMPE      C312          -25.9521035233      -26.4624709022        3.0548229310  MEMB      71              0.0000000000
      8786        71  PMPE      H12X          -26.9522877861      -26.2290883667        3.4784801409  MEMB      71              0.0000000000
      8787        71  PMPE      H12Y          -26.1119401073      -27.1800999328        2.2218881234  MEMB      71              0.0000000000
      8788        71  PMPE      C313          -25.4601326091      -25.0428806530        2.6167137150  MEMB      71              0.0000000000
      8789        71  PMPE      H13X          -24.5252346145      -25.1013864058        2.0193334772  MEMB      71              0.0000000000
      8790        71  PMPE      H13Y          -25.3075102428      -24.3730428489        3.4898381606  MEMB      71              0.0000000000
      8791        71  PMPE      C314          -26.4250989267      -24.3596937133        1.7590786375  MEMB      71              0.0000000000
      8792        71  PMPE      H14X          -27.3945089178      -24.3568547303        2.3018101727  MEMB      71              0.0000000000
      8793        71  PMPE      H14Y          -26.6079860922      -24.8718330071        0.7902725333  MEMB      71              0.0000000000
      8794        71  PMPE      C315          -26.0677246538      -22.8594985516        1.5036911494  MEMB      71              0.0000000000
      8795        71  PMPE      H15X          -25.2489326442      -22.8251955119        0.7535428702  MEMB      71              0.0000000000
      8796        71  PMPE      H15Y          -25.7821814813      -22.4279982389        2.4868460427  MEMB      71              0.0000000000
      8797        71  PMPE      C316          -27.2312660188      -22.1356288655        0.8386545324  MEMB      71              0.0000000000
      8798        71  PMPE      H16X          -26.9406836884      -21.1052589723        0.5416346914  MEMB      71              0.0000000000
      8799        71  PMPE      H16Y          -27.9914867340      -21.9679688135        1.6312930923  MEMB      71              0.0000000000
      8800        71  PMPE      H16Z          -27.6744164320      -22.7129864728       -0.0007483526  MEMB      71              0.0000000000
      8801        72  PMPE      N             -38.4141571204       -2.0636321115       21.3439204534  MEMB      72              0.0000000000
      8802        72  PMPE      HN1           -38.5152927759       -1.6745757750       22.3030900542  MEMB      72              0.0000000000
      8803        72  PMPE      HN2           -38.2823351731       -1.2161233646       20.7557437846  MEMB      72              0.0000000000
      8804        72  PMPE      HN3           -39.3683763340       -2.4673398355       21.2539993270  MEMB      72              0.0000000000
      8805        72  PMPE      C12           -37.3416992997       -3.0773294363       21.4353436585  MEMB      72              0.0000000000
      8806        72  PMPE      H12A          -37.8086573593       -3.9224567292       21.9849171024  MEMB      72              0.0000000000
      8807        72  PMPE      H12B          -36.5096687414       -2.5767550022       21.9752243110  MEMB      72              0.0000000000
      8808        72  PMPE      C11           -36.8875840433       -3.3936184888       20.0134756406  MEMB      72              0.0000000000
      8809        72  PMPE      H11A          -36.1858229232       -4.2526554867       20.0759876678  MEMB      72              0.0000000000
      8810        72  PMPE      H11B          -36.3024215042       -2.5558257071       19.5775752903  MEMB      72              0.0000000000
      8811        72  PMPE      P             -37.8461846303       -4.4967650013       17.7784969085  MEMB      72              0.0000000000
      8812        72  PMPE      O13           -38.1744657502       -3.5528055475       16.6499054162  MEMB      72              0.0000000000
      8813        72  PMPE      O14           -38.5828786146       -5.7440931681       17.8932219263  MEMB      72              0.0000000000
      8814        72  PMPE      O11           -36.2896208604       -4.7948740770       17.6648620462  MEMB      72              0.0000000000
      8815        72  PMPE      O12           -37.9645512653       -3.7536107710       19.2207739526  MEMB      72              0.0000000000
      8816        72  PMPE      C1            -35.9275564407       -5.9545272557       16.8200456194  MEMB      72              0.0000000000
      8817        72  PMPE      HA            -36.4854196082       -6.1011077889       15.8705068258  MEMB      72              0.0000000000
      8818        72  PMPE      HB            -36.1101903321       -6.8908083297       17.3895571880  MEMB      72              0.0000000000
      8819        72  PMPE      C2            -34.4958143130       -5.7584342779       16.2407425707  MEMB      72              0.0000000000
      8820        72  PMPE      HS            -33.8297874716       -5.9154992575       17.1159911185  MEMB      72              0.0000000000
      8821        72  PMPE      O21           -34.4046617268       -4.4376381734       15.7337899372  MEMB      72              0.0000000000
      8822        72  PMPE      C21           -34.1139936843       -3.4629734635       16.5315750363  MEMB      72              0.0000000000
      8823        72  PMPE      O22           -33.9902033767       -3.5406026815       17.7744833343  MEMB      72              0.0000000000
      8824        72  PMPE      C22           -34.0439638263       -2.1905706607       15.7594045451  MEMB      72              0.0000000000
      8825        72  PMPE      H2R           -33.0665183540       -2.1748926743       15.2315075944  MEMB      72              0.0000000000
      8826        72  PMPE      H2S           -34.0423935176       -1.3284154702       16.4601236342  MEMB      72              0.0000000000
      8827        72  PMPE      C3            -34.0619084238       -6.6446169574       15.1023077686  MEMB      72              0.0000000000
      8828        72  PMPE      HX            -33.9418723598       -7.7270051466       15.3221898711  MEMB      72              0.0000000000
      8829        72  PMPE      HY            -33.0251242473       -6.2580522244       15.0024722058  MEMB      72              0.0000000000
      8830        72  PMPE      O31           -34.9490283626       -6.4567716320       14.0217626527  MEMB      72              0.0000000000
      8831        72  PMPE      C31           -35.7465071312       -7.4885478255       13.5649992475  MEMB      72              0.0000000000
      8832        72  PMPE      O32           -35.7647093374       -8.6100695286       13.9675443766  MEMB      72              0.0000000000
      8833        72  PMPE      C32           -36.8278072599       -6.9773158093       12.7537665996  MEMB      72              0.0000000000
      8834        72  PMPE      H2X           -37.0235633114       -5.8943135317       12.9057758837  MEMB      72              0.0000000000
      8835        72  PMPE      H2Y           -37.8108416492       -7.4278944875       13.0086071029  MEMB      72              0.0000000000
      8836        72  PMPE      C23           -35.1701863189       -2.0408066718       14.7001054262  MEMB      72              0.0000000000
      8837        72  PMPE      H3R           -36.1721449494       -1.8996331474       15.1588754812  MEMB      72              0.0000000000
      8838        72  PMPE      H3S           -35.1228327538       -2.9408656431       14.0505111756  MEMB      72              0.0000000000
      8839        72  PMPE      C24           -34.9924698927       -0.7158492603       13.9162029262  MEMB      72              0.0000000000
      8840        72  PMPE      H4R           -33.9156635830       -0.5746170167       13.6819756622  MEMB      72              0.0000000000
      8841        72  PMPE      H4S           -35.4422258461        0.0250958621       14.6112143452  MEMB      72              0.0000000000
      8842        72  PMPE      C25           -35.6846804540       -0.5895957984       12.5568213973  MEMB      72              0.0000000000
      8843        72  PMPE      H5R           -35.2189004344        0.3273225804       12.1365466869  MEMB      72              0.0000000000
      8844        72  PMPE      H5S           -36.7697200527       -0.4011375728       12.7034289045  MEMB      72              0.0000000000
      8845        72  PMPE      C26           -35.4601822881       -1.6441035668       11.4391713590  MEMB      72              0.0000000000
      8846        72  PMPE      H6R           -36.2270175646       -1.4902197320       10.6501189814  MEMB      72              0.0000000000
      8847        72  PMPE      H6S           -35.6835149750       -2.6401325443       11.8777709823  MEMB      72              0.0000000000
      8848        72  PMPE      C27           -34.0491600455       -1.6568750746       10.8212720788  MEMB      72              0.0000000000
      8849        72  PMPE      H7R           -33.3026972137       -1.9146838803       11.6027124525  MEMB      72              0.0000000000
      8850        72  PMPE      H7S           -34.0292283288       -0.5776530435       10.5582064964  MEMB      72              0.0000000000
      8851        72  PMPE      C28           -34.0385313412       -2.5108750067        9.5008604484  MEMB      72              0.0000000000
      8852        72  PMPE      H8R           -33.1837056790       -2.1556255149        8.8865383753  MEMB      72              0.0000000000
      8853        72  PMPE      H8S           -34.9984041596       -2.3326406639        8.9705791358  MEMB      72              0.0000000000
      8854        72  PMPE      C29           -33.9948196332       -4.0019929890        9.8429176143  MEMB      72              0.0000000000
      8855        72  PMPE      H9R           -34.6238796569       -4.3487108521       10.6904965699  MEMB      72              0.0000000000
      8856        72  PMPE      C217          -32.5508829951       -4.4675916036        9.9290362513  MEMB      72              0.0000000000
      8857        72  PMPE      H17R          -32.4190643403       -5.0758763153       10.8153219911  MEMB      72              0.0000000000
      8858        72  PMPE      H17S          -31.8135526775       -3.8733555844        9.4035683250  MEMB      72              0.0000000000
      8859        72  PMPE      C210          -33.5082814120       -5.1169312365        8.9410714837  MEMB      72              0.0000000000
      8860        72  PMPE      H10R          -33.8084391954       -6.1413294049        9.2490233192  MEMB      72              0.0000000000
      8861        72  PMPE      C211          -33.1783977031       -4.8117014937        7.5137284989  MEMB      72              0.0000000000
      8862        72  PMPE      H11R          -32.2526303429       -5.3719055895        7.2618420316  MEMB      72              0.0000000000
      8863        72  PMPE      H11S          -32.9614364396       -3.7585276290        7.2343118738  MEMB      72              0.0000000000
      8864        72  PMPE      C212          -34.3080254919       -5.3556637985        6.5349023455  MEMB      72              0.0000000000
      8865        72  PMPE      H12R          -35.2414911829       -4.9100316236        6.9403339874  MEMB      72              0.0000000000
      8866        72  PMPE      H12S          -34.3141713067       -6.4578162933        6.6746983240  MEMB      72              0.0000000000
      8867        72  PMPE      C213          -34.0955421541       -4.8767939519        5.0737033688  MEMB      72              0.0000000000
      8868        72  PMPE      H13R          -33.2297305891       -5.4638928001        4.6995292246  MEMB      72              0.0000000000
      8869        72  PMPE      H13S          -33.9961454736       -3.7714371416        5.0224420012  MEMB      72              0.0000000000
      8870        72  PMPE      C214          -35.2700527365       -5.2254754506        4.1353975561  MEMB      72              0.0000000000
      8871        72  PMPE      H14R          -36.1909179348       -4.7572717096        4.5441924008  MEMB      72              0.0000000000
      8872        72  PMPE      H14S          -35.5554281652       -6.2990729199        4.1189557422  MEMB      72              0.0000000000
      8873        72  PMPE      C215          -35.0080102500       -4.8955398894        2.6622401379  MEMB      72              0.0000000000
      8874        72  PMPE      H15R          -34.0543552352       -5.4160078201        2.4299129427  MEMB      72              0.0000000000
      8875        72  PMPE      H15S          -34.8382995888       -3.8132924016        2.4771469754  MEMB      72              0.0000000000
      8876        72  PMPE      C216          -35.9862168586       -5.4057962937        1.7076272109  MEMB      72              0.0000000000
      8877        72  PMPE      H16R          -36.1717005932       -6.4942745391        1.8306401900  MEMB      72              0.0000000000
      8878        72  PMPE      H16S          -36.9010402118       -4.7991243823        1.8789999938  MEMB      72              0.0000000000
      8879        72  PMPE      H16T          -35.5733207461       -5.1743332871        0.7025094479  MEMB      72              0.0000000000
      8880        72  PMPE      C33           -36.4560520488       -7.2282497418       11.2600787616  MEMB      72              0.0000000000
      8881        72  PMPE      H3X           -36.1618700087       -8.2795056677       11.0535876311  MEMB      72              0.0000000000
      8882        72  PMPE      H3Y           -35.5048405339       -6.7185841033       10.9959603404  MEMB      72              0.0000000000
      8883        72  PMPE      C34           -37.5039696127       -6.9178968777       10.2607784440  MEMB      72              0.0000000000
      8884        72  PMPE      H4X           -38.2266172070       -7.7533035293       10.3799307429  MEMB      72              0.0000000000
      8885        72  PMPE      H4Y           -37.1069418930       -6.9382548109        9.2233408042  MEMB      72              0.0000000000
      8886        72  PMPE      C35           -38.1892773910       -5.5416559037       10.4815518746  MEMB      72              0.0000000000
      8887        72  PMPE      H5X           -37.3716603726       -4.7903454658       10.5183749425  MEMB      72              0.0000000000
      8888        72  PMPE      H5Y           -38.6448108837       -5.4924685940       11.4936742020  MEMB      72              0.0000000000
      8889        72  PMPE      C36           -39.1003635637       -5.2327651884        9.3783901905  MEMB      72              0.0000000000
      8890        72  PMPE      H6X           -39.8280028099       -6.0602020542        9.2362275401  MEMB      72              0.0000000000
      8891        72  PMPE      H6Y           -38.4639140581       -5.1578684686        8.4708419187  MEMB      72              0.0000000000
      8892        72  PMPE      C37           -39.8615327446       -3.8632477200        9.4980095347  MEMB      72              0.0000000000
      8893        72  PMPE      H7X           -40.6690362759       -3.7675923059       10.2550495173  MEMB      72              0.0000000000
      8894        72  PMPE      H7Y           -40.4018415059       -3.7694252279        8.5317871996  MEMB      72              0.0000000000
      8895        72  PMPE      C38           -39.0914443295       -2.6050413798        9.6751057770  MEMB      72              0.0000000000
      8896        72  PMPE      H8X           -38.5323890406       -2.5067136444       10.6301500247  MEMB      72              0.0000000000
      8897        72  PMPE      H8Y           -39.7809415633       -1.7405159006        9.5678201944  MEMB      72              0.0000000000
      8898        72  PMPE      C39           -38.1097769647       -2.3520236994        8.5425197776  MEMB      72              0.0000000000
      8899        72  PMPE      H9X           -37.4509630139       -3.2456523650        8.5011316110  MEMB      72              0.0000000000
      8900        72  PMPE      H9Y           -37.3805572114       -1.5868499416        8.8846727459  MEMB      72              0.0000000000
      8901        72  PMPE      C310          -38.7437679863       -2.0849168813        7.2030135173  MEMB      72              0.0000000000
      8902        72  PMPE      H10X          -39.2428230260       -1.0923847324        7.2150719622  MEMB      72              0.0000000000
      8903        72  PMPE      H10Y          -39.4980662077       -2.8537032930        6.9303923316  MEMB      72              0.0000000000
      8904        72  PMPE      C311          -37.7401397594       -2.1492972577        6.0352951262  MEMB      72              0.0000000000
      8905        72  PMPE      H11X          -37.2551263979       -3.1460965071        5.9613069612  MEMB      72              0.0000000000
      8906        72  PMPE      H11Y          -36.8886194423       -1.4428951806        6.1364414977  MEMB      72              0.0000000000
      8907        72  PMPE      C312          -38.3804664034       -1.7799459120        4.6619523133  MEMB      72              0.0000000000
      8908        72  PMPE      H12X          -38.8981916735       -0.7981267159        4.7100408491  MEMB      72              0.0000000000
      8909        72  PMPE      H12Y          -39.1349319332       -2.5276353693        4.3362788360  MEMB      72              0.0000000000
      8910        72  PMPE      C313          -37.2950597760       -1.5681528920        3.5332648853  MEMB      72              0.0000000000
      8911        72  PMPE      H13X          -36.6011861973       -2.4231010776        3.3851979720  MEMB      72              0.0000000000
      8912        72  PMPE      H13Y          -36.6954207679       -0.7228606804        3.9335593081  MEMB      72              0.0000000000
      8913        72  PMPE      C314          -38.0666118822       -1.1360069021        2.2378341877  MEMB      72              0.0000000000
      8914        72  PMPE      H14X          -38.9070969628       -0.4474423623        2.4697485493  MEMB      72              0.0000000000
      8915        72  PMPE      H14Y          -38.5651393410       -2.0147617789        1.7756855816  MEMB      72              0.0000000000
      8916        72  PMPE      C315          -37.0522337119       -0.5806267881        1.1822086284  MEMB      72              0.0000000000
      8917        72  PMPE      H15X          -36.6376521019        0.3923993184        1.5223018663  MEMB      72              0.0000000000
      8918        72  PMPE      H15Y          -37.6652012939       -0.3003161585        0.2990234471  MEMB      72              0.0000000000
      8919        72  PMPE      C316          -35.9429233210       -1.4694801787        0.7468316817  MEMB      72              0.0000000000
      8920        72  PMPE      H16X          -35.1394495018       -1.5612109945        1.5086300882  MEMB      72              0.0000000000
      8921        72  PMPE      H16Y          -35.4050275429       -1.0692482720       -0.1390596017  MEMB      72              0.0000000000
      8922        72  PMPE      H16Z          -36.3949482258       -2.4439699947        0.4633460794  MEMB      72              0.0000000000
      8923        73  PMPE      N               3.5211544321      -39.3078419459       17.8274753265  MEMB      73              0.0000000000
      8924        73  PMPE      HN1             3.0665215508      -39.0928002856       18.7377862507  MEMB      73              0.0000000000
      8925        73  PMPE      HN2             3.1450777486      -38.6062101701       17.1582376494  MEMB      73              0.0000000000
      8926        73  PMPE      HN3             3.3864631401      -40.3223071939       17.6422230410  MEMB      73              0.0000000000
      8927        73  PMPE      C12             4.9241918913      -39.0372732547       18.2284075120  MEMB      73              0.0000000000
      8928        73  PMPE      H12A            4.9007345743      -38.0049409647       18.6383595664  MEMB      73              0.0000000000
      8929        73  PMPE      H12B            5.5973357489      -39.0710494605       17.3451987539  MEMB      73              0.0000000000
      8930        73  PMPE      C11             5.3113943026      -40.0120467679       19.3414689839  MEMB      73              0.0000000000
      8931        73  PMPE      H11A            5.3439562350      -40.9703722490       18.7803334612  MEMB      73              0.0000000000
      8932        73  PMPE      H11B            4.5444251726      -40.1340654389       20.1359441191  MEMB      73              0.0000000000
      8933        73  PMPE      P               7.9881927185      -39.2392830659       19.3605788731  MEMB      73              0.0000000000
      8934        73  PMPE      O13             9.0731551012      -39.6650453166       20.2423735649  MEMB      73              0.0000000000
      8935        73  PMPE      O14             7.9224650286      -37.8025593860       19.0360958765  MEMB      73              0.0000000000
      8936        73  PMPE      O11             7.9383266451      -40.0743746485       17.9482483898  MEMB      73              0.0000000000
      8937        73  PMPE      O12             6.5724310578      -39.6905910752       20.0153514711  MEMB      73              0.0000000000
      8938        73  PMPE      C1              8.2250515467      -41.4593872899       18.0655682712  MEMB      73              0.0000000000
      8939        73  PMPE      HA              7.6049020661      -42.0341117336       18.7862814458  MEMB      73              0.0000000000
      8940        73  PMPE      HB              9.2601330110      -41.5965833312       18.4451797385  MEMB      73              0.0000000000
      8941        73  PMPE      C2              8.1050588299      -42.0909782346       16.6570544608  MEMB      73              0.0000000000
      8942        73  PMPE      HS              8.9151991193      -41.6727938488       16.0221406337  MEMB      73              0.0000000000
      8943        73  PMPE      O21             6.8548362435      -41.8585989245       15.9549134480  MEMB      73              0.0000000000
      8944        73  PMPE      C21             6.6613748047      -40.7064058215       15.2774477955  MEMB      73              0.0000000000
      8945        73  PMPE      O22             7.4442938318      -39.8098430018       15.2152714310  MEMB      73              0.0000000000
      8946        73  PMPE      C22             5.1753052561      -40.7737859673       14.7003283017  MEMB      73              0.0000000000
      8947        73  PMPE      H2R             5.0884614203      -39.8132202076       14.1488824754  MEMB      73              0.0000000000
      8948        73  PMPE      H2S             4.4982841898      -40.7884505451       15.5810943266  MEMB      73              0.0000000000
      8949        73  PMPE      C3              8.3446378642      -43.6384113462       16.7677255754  MEMB      73              0.0000000000
      8950        73  PMPE      HX              7.3494707723      -44.1044755248       16.9312731509  MEMB      73              0.0000000000
      8951        73  PMPE      HY              9.0189366228      -43.6219924460       17.6505463718  MEMB      73              0.0000000000
      8952        73  PMPE      O31             9.0626364701      -44.1702032266       15.6751956880  MEMB      73              0.0000000000
      8953        73  PMPE      C31             8.3608437187      -44.4962840753       14.5714863667  MEMB      73              0.0000000000
      8954        73  PMPE      O32             7.1629694577      -44.6677365445       14.5899548408  MEMB      73              0.0000000000
      8955        73  PMPE      C32             9.2863036469      -44.6455099038       13.3438397326  MEMB      73              0.0000000000
      8956        73  PMPE      H2X             8.6282531313      -44.6775726102       12.4492656520  MEMB      73              0.0000000000
      8957        73  PMPE      H2Y            10.0248010187      -45.4647882157       13.4769748246  MEMB      73              0.0000000000
      8958        73  PMPE      C23             4.8989706860      -42.0181029723       13.8038140133  MEMB      73              0.0000000000
      8959        73  PMPE      H3R             5.1408303318      -42.9717881473       14.3198658699  MEMB      73              0.0000000000
      8960        73  PMPE      H3S             5.5934223619      -42.1590417050       12.9481305948  MEMB      73              0.0000000000
      8961        73  PMPE      C24             3.4292970711      -42.1703981226       13.4854221251  MEMB      73              0.0000000000
      8962        73  PMPE      H4R             2.7107984312      -42.1993025212       14.3323256890  MEMB      73              0.0000000000
      8963        73  PMPE      H4S             3.3156643584      -43.0590293148       12.8283504884  MEMB      73              0.0000000000
      8964        73  PMPE      C25             2.8128105416      -40.9702713153       12.6986091322  MEMB      73              0.0000000000
      8965        73  PMPE      H5R             3.2733498040      -40.0240262199       13.0547623683  MEMB      73              0.0000000000
      8966        73  PMPE      H5S             1.7101470587      -40.8851862950       12.8045084643  MEMB      73              0.0000000000
      8967        73  PMPE      C26             3.0578127304      -41.0007200104       11.1297398589  MEMB      73              0.0000000000
      8968        73  PMPE      H6R             2.5192786633      -41.8826618611       10.7217190744  MEMB      73              0.0000000000
      8969        73  PMPE      H6S             4.1573133997      -41.1497233377       11.1864596064  MEMB      73              0.0000000000
      8970        73  PMPE      C27             2.8439270322      -39.6516724164       10.3614499702  MEMB      73              0.0000000000
      8971        73  PMPE      H7R             3.1820182288      -38.8684215952       11.0731616184  MEMB      73              0.0000000000
      8972        73  PMPE      H7S             1.7511497386      -39.5007756615       10.2295842755  MEMB      73              0.0000000000
      8973        73  PMPE      C28             3.6232350119      -39.4923735797        9.1157675348  MEMB      73              0.0000000000
      8974        73  PMPE      H8R             3.4277678436      -40.3233598659        8.4047291873  MEMB      73              0.0000000000
      8975        73  PMPE      H8S             4.6943241798      -39.6007188780        9.3902672011  MEMB      73              0.0000000000
      8976        73  PMPE      C29             3.3394116245      -38.1378434679        8.4989284741  MEMB      73              0.0000000000
      8977        73  PMPE      H9R             3.3816603876      -37.2619136473        9.1810445699  MEMB      73              0.0000000000
      8978        73  PMPE      C217            2.2963538610      -38.1077723104        7.3565808402  MEMB      73              0.0000000000
      8979        73  PMPE      H17R            1.7070290513      -37.2133737601        7.5166941046  MEMB      73              0.0000000000
      8980        73  PMPE      H17S            1.9278590083      -39.0601992520        6.9960501868  MEMB      73              0.0000000000
      8981        73  PMPE      C210            3.8186849059      -37.8198915678        7.0903159564  MEMB      73              0.0000000000
      8982        73  PMPE      H10R            3.9874379713      -36.7475781460        6.8536997144  MEMB      73              0.0000000000
      8983        73  PMPE      C211            4.3934358146      -38.9228857935        6.2324790391  MEMB      73              0.0000000000
      8984        73  PMPE      H11R            3.7092700317      -39.7963592904        6.1751873412  MEMB      73              0.0000000000
      8985        73  PMPE      H11S            5.3919762329      -39.1931888668        6.6376630503  MEMB      73              0.0000000000
      8986        73  PMPE      C212            4.6990546214      -38.4509727897        4.7552220587  MEMB      73              0.0000000000
      8987        73  PMPE      H12R            5.2879484588      -39.2788634428        4.3056414748  MEMB      73              0.0000000000
      8988        73  PMPE      H12S            5.4412001765      -37.6409641160        4.9208328342  MEMB      73              0.0000000000
      8989        73  PMPE      C213            3.5633683178      -38.0195550049        3.9633681480  MEMB      73              0.0000000000
      8990        73  PMPE      H13R            3.0465272021      -37.1175269303        4.3552129663  MEMB      73              0.0000000000
      8991        73  PMPE      H13S            2.8029095008      -38.8081301405        4.1482277224  MEMB      73              0.0000000000
      8992        73  PMPE      C214            3.7891347406      -37.9662565656        2.3864053133  MEMB      73              0.0000000000
      8993        73  PMPE      H14R            2.8164641886      -37.7971455851        1.8768610462  MEMB      73              0.0000000000
      8994        73  PMPE      H14S            4.3029111693      -38.8828873545        2.0256541244  MEMB      73              0.0000000000
      8995        73  PMPE      C215            4.7011736700      -36.7578692467        2.0027463375  MEMB      73              0.0000000000
      8996        73  PMPE      H15R            5.6418423270      -36.8707374419        2.5830254265  MEMB      73              0.0000000000
      8997        73  PMPE      H15S            4.2143249326      -35.8441090996        2.4056628971  MEMB      73              0.0000000000
      8998        73  PMPE      C216            5.2074262885      -36.5292752578        0.6537367031  MEMB      73              0.0000000000
      8999        73  PMPE      H16R            5.9436228664      -35.7022226118        0.5625270713  MEMB      73              0.0000000000
      9000        73  PMPE      H16S            5.7052241595      -37.4714570949        0.3393908402  MEMB      73              0.0000000000
      9001        73  PMPE      H16T            4.4335109473      -36.3152853548       -0.1141083535  MEMB      73              0.0000000000
      9002        73  PMPE      C33            10.2044055722      -43.3647669840       13.3445197401  MEMB      73              0.0000000000
      9003        73  PMPE      H3X            11.0387145293      -43.5699226259       12.6401328399  MEMB      73              0.0000000000
      9004        73  PMPE      H3Y            10.5990080433      -43.2226293004       14.3733085386  MEMB      73              0.0000000000
      9005        73  PMPE      C34             9.6194918337      -42.0487631137       12.9033908574  MEMB      73              0.0000000000
      9006        73  PMPE      H4X            10.4111110698      -41.2703493611       12.8617685917  MEMB      73              0.0000000000
      9007        73  PMPE      H4Y             8.7934454911      -41.7034474373       13.5612095226  MEMB      73              0.0000000000
      9008        73  PMPE      C35             8.9770178300      -42.2760688995       11.5359433424  MEMB      73              0.0000000000
      9009        73  PMPE      H5X             8.2041188071      -43.0409512647       11.7637661745  MEMB      73              0.0000000000
      9010        73  PMPE      H5Y             9.6818552182      -42.6729073112       10.7743369533  MEMB      73              0.0000000000
      9011        73  PMPE      C36             8.2796370370      -40.9293145762       11.0775008726  MEMB      73              0.0000000000
      9012        73  PMPE      H6X             9.0413863768      -40.1790711343       10.7755178077  MEMB      73              0.0000000000
      9013        73  PMPE      H6Y             7.5118841827      -40.5985830474       11.8092750038  MEMB      73              0.0000000000
      9014        73  PMPE      C37             7.4914870867      -41.1439621146        9.7872373932  MEMB      73              0.0000000000
      9015        73  PMPE      H7X             6.8450058963      -40.2454891728        9.6916895525  MEMB      73              0.0000000000
      9016        73  PMPE      H7Y             6.8006085926      -42.0131066287        9.8271834315  MEMB      73              0.0000000000
      9017        73  PMPE      C38             8.2765477025      -41.4060640738        8.5642966860  MEMB      73              0.0000000000
      9018        73  PMPE      H8X             8.6730270465      -42.4409293481        8.4856908933  MEMB      73              0.0000000000
      9019        73  PMPE      H8Y             9.2673217308      -40.9046460923        8.5286895985  MEMB      73              0.0000000000
      9020        73  PMPE      C39             7.5034196336      -41.0973401146        7.2189941658  MEMB      73              0.0000000000
      9021        73  PMPE      H9X             8.2877768598      -41.1651286711        6.4350873430  MEMB      73              0.0000000000
      9022        73  PMPE      H9Y             7.0493918297      -40.0833744613        7.2263046740  MEMB      73              0.0000000000
      9023        73  PMPE      C310            6.2560340633      -42.0398749758        6.9484458562  MEMB      73              0.0000000000
      9024        73  PMPE      H10X            5.7715521487      -41.5512339246        6.0761912256  MEMB      73              0.0000000000
      9025        73  PMPE      H10Y            5.4495246101      -41.9369789211        7.7055954765  MEMB      73              0.0000000000
      9026        73  PMPE      C311            6.5379705196      -43.5031702428        6.5845419608  MEMB      73              0.0000000000
      9027        73  PMPE      H11X            5.5944684017      -44.0796943516        6.4761701055  MEMB      73              0.0000000000
      9028        73  PMPE      H11Y            6.9158668197      -44.0809794726        7.4549744143  MEMB      73              0.0000000000
      9029        73  PMPE      C312            7.3233841540      -43.7755904267        5.2805637369  MEMB      73              0.0000000000
      9030        73  PMPE      H12X            7.4459061789      -44.8789476522        5.2368372832  MEMB      73              0.0000000000
      9031        73  PMPE      H12Y            8.3699779842      -43.4190873865        5.3895033985  MEMB      73              0.0000000000
      9032        73  PMPE      C313            6.6590199716      -43.2529199773        3.9652254493  MEMB      73              0.0000000000
      9033        73  PMPE      H13X            7.2877261607      -43.6007723647        3.1178482406  MEMB      73              0.0000000000
      9034        73  PMPE      H13Y            6.6450269930      -42.1426769513        3.9266821399  MEMB      73              0.0000000000
      9035        73  PMPE      C314            5.1838992897      -43.7150292194        3.7235908860  MEMB      73              0.0000000000
      9036        73  PMPE      H14X            4.6614308652      -42.9870517413        4.3803994838  MEMB      73              0.0000000000
      9037        73  PMPE      H14Y            4.9621854660      -44.7811270680        3.9440435009  MEMB      73              0.0000000000
      9038        73  PMPE      C315            4.6187892671      -43.4864105328        2.3672248413  MEMB      73              0.0000000000
      9039        73  PMPE      H15X            3.6000985193      -43.9285756542        2.4000906792  MEMB      73              0.0000000000
      9040        73  PMPE      H15Y            5.2384104086      -43.9908695588        1.5952712193  MEMB      73              0.0000000000
      9041        73  PMPE      C316            4.3709903924      -41.9022049189        2.1015943311  MEMB      73              0.0000000000
      9042        73  PMPE      H16X            5.1929325312      -41.2895062532        2.5297664422  MEMB      73              0.0000000000
      9043        73  PMPE      H16Y            3.5558841319      -41.3755932278        2.6425214975  MEMB      73              0.0000000000
      9044        73  PMPE      H16Z            4.2485567787      -41.6105540453        1.0365717672  MEMB      73              0.0000000000
      9045        74  PYPG      C13           -36.2598625097        3.5150380860       21.1750507401  MEMB      74              0.0000000000
      9046        74  PYPG      H13A          -36.8685555860        3.1038383321       22.0085543942  MEMB      74              0.0000000000
      9047        74  PYPG      H13B          -35.4589298095        2.7689057721       20.9850125945  MEMB      74              0.0000000000
      9048        74  PYPG      OC3           -35.6113833181        4.7358794438       21.4118187051  MEMB      74              0.0000000000
      9049        74  PYPG      HO3           -36.3291232952        5.3368916693       21.6245008122  MEMB      74              0.0000000000
      9050        74  PYPG      C12           -37.0900002920        3.4850553582       19.8628174047  MEMB      74              0.0000000000
      9051        74  PYPG      H12A          -37.4467353918        2.4385074539       19.7204917483  MEMB      74              0.0000000000
      9052        74  PYPG      OC2           -36.2623200806        3.8238060925       18.7491593344  MEMB      74              0.0000000000
      9053        74  PYPG      HO2           -36.9063945983        3.9064069913       18.0122319654  MEMB      74              0.0000000000
      9054        74  PYPG      C11           -38.3425509124        4.4504237175       19.9801628988  MEMB      74              0.0000000000
      9055        74  PYPG      H11A          -37.9569244515        5.4743104667       20.1732153529  MEMB      74              0.0000000000
      9056        74  PYPG      H11B          -38.9009324735        4.3016576782       20.9290568540  MEMB      74              0.0000000000
      9057        74  PYPG      P             -39.3658390013        5.4543238519       17.7394127498  MEMB      74              0.0000000000
      9058        74  PYPG      O13           -37.9672978308        5.7342535400       17.3606158848  MEMB      74              0.0000000000
      9059        74  PYPG      O14           -40.2699396394        6.5958031311       18.1029722014  MEMB      74              0.0000000000
      9060        74  PYPG      O11           -40.0691489661        4.6008695826       16.6368710366  MEMB      74              0.0000000000
      9061        74  PYPG      O12           -39.3006684541        4.3680813949       18.9811190443  MEMB      74              0.0000000000
      9062        74  PYPG      C1            -39.4477367510        3.6058982771       15.8015763379  MEMB      74              0.0000000000
      9063        74  PYPG      HA            -40.2747500268        2.9900243672       15.3879710091  MEMB      74              0.0000000000
      9064        74  PYPG      HB            -38.7474828400        3.0019495964       16.4173777205  MEMB      74              0.0000000000
      9065        74  PYPG      C2            -38.5658938983        4.3742951458       14.6944955407  MEMB      74              0.0000000000
      9066        74  PYPG      HS            -37.8740959007        5.0442514225       15.2484768721  MEMB      74              0.0000000000
      9067        74  PYPG      O21           -39.4521238724        5.1803641390       13.8586275382  MEMB      74              0.0000000000
      9068        74  PYPG      C21           -38.9183322132        5.9747072640       13.0297639935  MEMB      74              0.0000000000
      9069        74  PYPG      O22           -37.7412479747        6.2353643013       12.8718191067  MEMB      74              0.0000000000
      9070        74  PYPG      C22           -40.0464542901        6.4924771851       12.0862900035  MEMB      74              0.0000000000
      9071        74  PYPG      H2R           -39.5400187223        7.4008810238       11.6955895883  MEMB      74              0.0000000000
      9072        74  PYPG      H2S           -40.9230780392        6.8046236203       12.6932630934  MEMB      74              0.0000000000
      9073        74  PYPG      C3            -37.7255259371        3.3004580827       13.8458346023  MEMB      74              0.0000000000
      9074        74  PYPG      HX            -37.0657745324        2.8538545872       14.6201692079  MEMB      74              0.0000000000
      9075        74  PYPG      HY            -37.1036169245        3.9508252192       13.1942421646  MEMB      74              0.0000000000
      9076        74  PYPG      O31           -38.5738443218        2.3501011915       13.1424211439  MEMB      74              0.0000000000
      9077        74  PYPG      C31           -38.5334713633        2.5297204838       11.7731869044  MEMB      74              0.0000000000
      9078        74  PYPG      O32           -37.8310735576        3.2276706481       11.0971862434  MEMB      74              0.0000000000
      9079        74  PYPG      C32           -39.6982488127        1.6584972315       11.2499014478  MEMB      74              0.0000000000
      9080        74  PYPG      H2X           -39.2687975201        0.6436785041       11.1083557354  MEMB      74              0.0000000000
      9081        74  PYPG      H2Y           -40.5698759864        1.5690005026       11.9329661076  MEMB      74              0.0000000000
      9082        74  PYPG      C23           -40.4428630385        5.5442356548       10.9874715048  MEMB      74              0.0000000000
      9083        74  PYPG      H3R           -40.8378552624        4.6426815876       11.5027407486  MEMB      74              0.0000000000
      9084        74  PYPG      H3S           -39.5082968333        5.1346776780       10.5479614264  MEMB      74              0.0000000000
      9085        74  PYPG      C24           -41.4716753539        6.1123880836       10.0154151413  MEMB      74              0.0000000000
      9086        74  PYPG      H4R           -42.2795508983        6.5925532470       10.6079519082  MEMB      74              0.0000000000
      9087        74  PYPG      H4S           -41.8241358488        5.1726200507        9.5390449863  MEMB      74              0.0000000000
      9088        74  PYPG      C25           -40.8288523888        7.2443239408        9.0771327714  MEMB      74              0.0000000000
      9089        74  PYPG      H5R           -40.7888328480        8.1727174360        9.6860698679  MEMB      74              0.0000000000
      9090        74  PYPG      H5S           -41.5497882101        7.4419822656        8.2552426855  MEMB      74              0.0000000000
      9091        74  PYPG      C26           -39.5273492233        6.8984872592        8.3002750398  MEMB      74              0.0000000000
      9092        74  PYPG      H6R           -38.7882470220        6.5935988232        9.0716976576  MEMB      74              0.0000000000
      9093        74  PYPG      H6S           -39.2223594357        7.8604033616        7.8354963573  MEMB      74              0.0000000000
      9094        74  PYPG      C27           -39.7547557507        5.8233487387        7.2094790819  MEMB      74              0.0000000000
      9095        74  PYPG      H7R           -40.4657681399        6.1444516345        6.4184823992  MEMB      74              0.0000000000
      9096        74  PYPG      H7S           -40.1963577591        4.9241281559        7.6898026659  MEMB      74              0.0000000000
      9097        74  PYPG      C28           -38.4329013908        5.2729382686        6.5409798449  MEMB      74              0.0000000000
      9098        74  PYPG      H8R           -37.7310620805        5.0575140690        7.3748474316  MEMB      74              0.0000000000
      9099        74  PYPG      H8S           -37.9990191484        6.0148673383        5.8369851206  MEMB      74              0.0000000000
      9100        74  PYPG      C29           -38.6981067698        4.0836351469        5.7374731316  MEMB      74              0.0000000000
      9101        74  PYPG      H9R           -38.9792780608        3.2451360865        6.3915844847  MEMB      74              0.0000000000
      9102        74  PYPG      C210          -38.6944853592        3.9714663356        4.3792235530  MEMB      74              0.0000000000
      9103        74  PYPG      H10R          -38.8508140814        3.0328057432        3.8274283340  MEMB      74              0.0000000000
      9104        74  PYPG      C211          -38.3954283502        5.0828212487        3.3928666829  MEMB      74              0.0000000000
      9105        74  PYPG      H11R          -37.9551027676        4.6612805409        2.4640299868  MEMB      74              0.0000000000
      9106        74  PYPG      H11S          -37.6427495990        5.8367011310        3.7082406299  MEMB      74              0.0000000000
      9107        74  PYPG      C212          -39.6481309772        6.0048259111        3.1802298854  MEMB      74              0.0000000000
      9108        74  PYPG      H12R          -40.1532042263        6.2334607161        4.1430119349  MEMB      74              0.0000000000
      9109        74  PYPG      H12S          -40.4147851661        5.4037708254        2.6461005327  MEMB      74              0.0000000000
      9110        74  PYPG      C213          -39.2844558394        7.2251097826        2.3956613457  MEMB      74              0.0000000000
      9111        74  PYPG      H13R          -38.4224809022        7.7885000336        2.8126886240  MEMB      74              0.0000000000
      9112        74  PYPG      H13S          -40.1297174031        7.9461186307        2.3949754320  MEMB      74              0.0000000000
      9113        74  PYPG      C214          -38.9453745783        6.9767521295        0.9697022072  MEMB      74              0.0000000000
      9114        74  PYPG      H14R          -37.9383125845        6.5351404205        0.8111895227  MEMB      74              0.0000000000
      9115        74  PYPG      H14S          -39.6255806697        6.2021549015        0.5554085223  MEMB      74              0.0000000000
      9116        74  PYPG      C215          -38.8992735833        8.2840958552        0.1680025391  MEMB      74              0.0000000000
      9117        74  PYPG      H15R          -37.9896554097        8.8334856533        0.4921713478  MEMB      74              0.0000000000
      9118        74  PYPG      H15S          -39.7456299781        8.9758646612        0.3666424462  MEMB      74              0.0000000000
      9119        74  PYPG      C216          -38.9217157983        8.2929659827       -1.3385158636  MEMB      74              0.0000000000
      9120        74  PYPG      H16R          -38.7477422253        9.3344253875       -1.6840834601  MEMB      74              0.0000000000
      9121        74  PYPG      H16S          -39.8837478734        7.8750214075       -1.7047641020  MEMB      74              0.0000000000
      9122        74  PYPG      H16T          -38.1316065360        7.6311812064       -1.7533518784  MEMB      74              0.0000000000
      9123        74  PYPG      C33           -40.2931451050        2.0808778050        9.8930223612  MEMB      74              0.0000000000
      9124        74  PYPG      H3X           -39.4471572018        2.3946063416        9.2447941339  MEMB      74              0.0000000000
      9125        74  PYPG      H3Y           -40.9458950929        2.9647321340       10.0574610472  MEMB      74              0.0000000000
      9126        74  PYPG      C34           -40.9538589673        0.9647049714        9.0956320675  MEMB      74              0.0000000000
      9127        74  PYPG      H4X           -41.7429322385        0.6452331052        9.8095102559  MEMB      74              0.0000000000
      9128        74  PYPG      H4Y           -40.1709053793        0.1847319777        8.9818493305  MEMB      74              0.0000000000
      9129        74  PYPG      C35           -41.4127920287        1.2883972058        7.6455850313  MEMB      74              0.0000000000
      9130        74  PYPG      H5X           -41.9057968405        0.3969631734        7.2021748662  MEMB      74              0.0000000000
      9131        74  PYPG      H5Y           -40.5783890300        1.5217762028        6.9501523639  MEMB      74              0.0000000000
      9132        74  PYPG      C36           -42.6477819362        2.1867310367        7.5620943809  MEMB      74              0.0000000000
      9133        74  PYPG      H6X           -42.3585232302        3.2068617888        7.8937332607  MEMB      74              0.0000000000
      9134        74  PYPG      H6Y           -43.4196729565        1.6163143948        8.1216749332  MEMB      74              0.0000000000
      9135        74  PYPG      C37           -43.1288816946        2.2758787316        6.1435736127  MEMB      74              0.0000000000
      9136        74  PYPG      H7X           -43.1111837141        1.2682731177        5.6758791492  MEMB      74              0.0000000000
      9137        74  PYPG      H7Y           -44.1470930332        2.7146717978        6.2144753267  MEMB      74              0.0000000000
      9138        74  PYPG      C38           -42.2015931328        3.2918933212        5.3639894475  MEMB      74              0.0000000000
      9139        74  PYPG      H8X           -41.3260089384        2.7385368852        4.9621560952  MEMB      74              0.0000000000
      9140        74  PYPG      H8Y           -41.8528156787        4.0703499206        6.0758047674  MEMB      74              0.0000000000
      9141        74  PYPG      C39           -43.0208009984        4.0438477734        4.3248031989  MEMB      74              0.0000000000
      9142        74  PYPG      H9X           -42.5130189551        4.9992721459        4.0725276333  MEMB      74              0.0000000000
      9143        74  PYPG      H9Y           -44.0449791963        4.2054820772        4.7238699993  MEMB      74              0.0000000000
      9144        74  PYPG      C310          -42.9991058218        3.3878139704        2.9128358699  MEMB      74              0.0000000000
      9145        74  PYPG      H10X          -43.6116263666        2.4609967810        2.9006255721  MEMB      74              0.0000000000
      9146        74  PYPG      H10Y          -41.9495952595        3.2512092240        2.5749184221  MEMB      74              0.0000000000
      9147        74  PYPG      C311          -43.7243284926        4.1311931021        1.7766692707  MEMB      74              0.0000000000
      9148        74  PYPG      H11X          -44.8260115588        4.0996970689        1.9167530007  MEMB      74              0.0000000000
      9149        74  PYPG      H11Y          -43.6979602160        3.4268803793        0.9178506434  MEMB      74              0.0000000000
      9150        74  PYPG      C312          -43.3364054783        5.5154537471        1.4590837210  MEMB      74              0.0000000000
      9151        74  PYPG      H12X          -43.6913786605        6.1858862191        2.2707705371  MEMB      74              0.0000000000
      9152        74  PYPG      H12Y          -42.2308351944        5.6219536818        1.4327611248  MEMB      74              0.0000000000
      9153        74  PYPG      C313          -43.8251516941        6.0594251348        0.0895714511  MEMB      74              0.0000000000
      9154        74  PYPG      H13X          -44.9279373377        5.9253034505        0.1035783377  MEMB      74              0.0000000000
      9155        74  PYPG      H13Y          -43.6949226016        7.1607428433        0.0227836093  MEMB      74              0.0000000000
      9156        74  PYPG      C314          -43.3182341832        5.3458479964       -1.1645967996  MEMB      74              0.0000000000
      9157        74  PYPG      H14X          -43.7493790606        4.3250883762       -1.0840680321  MEMB      74              0.0000000000
      9158        74  PYPG      H14Y          -43.7482684687        5.9209990232       -2.0122938012  MEMB      74              0.0000000000
      9159        74  PYPG      C315          -41.8537791081        5.2343940989       -1.3370575132  MEMB      74              0.0000000000
      9160        74  PYPG      H15X          -41.6657654911        5.8985620079       -2.2076040529  MEMB      74              0.0000000000
      9161        74  PYPG      H15Y          -41.3449513310        5.5464318689       -0.4000162385  MEMB      74              0.0000000000
      9162        74  PYPG      C316          -41.3038858578        3.8728005880       -1.8495771424  MEMB      74              0.0000000000
      9163        74  PYPG      H16X          -41.4441628732        3.0637934784       -1.1011449059  MEMB      74              0.0000000000
      9164        74  PYPG      H16Y          -40.2077049924        3.9245257341       -2.0228776596  MEMB      74              0.0000000000
      9165        74  PYPG      H16Z          -41.7669526459        3.6389845596       -2.8320338223  MEMB      74              0.0000000000
      9166        75  POPE      N             -38.2840244146      -10.0767088130       20.1329495533  MEMB      75              0.0000000000
      9167        75  POPE      HN1           -38.1244271620      -10.2879992895       19.1272234897  MEMB      75              0.0000000000
      9168        75  POPE      HN2           -38.9848212895       -9.3083003644       20.1272647160  MEMB      75              0.0000000000
      9169        75  POPE      HN3           -37.3391868994       -9.9322178466       20.5428331038  MEMB      75              0.0000000000
      9170        75  POPE      C12           -38.7968045933      -11.2785815868       20.8558587038  MEMB      75              0.0000000000
      9171        75  POPE      H12A          -39.8737855684      -11.4191473251       20.6220334073  MEMB      75              0.0000000000
      9172        75  POPE      H12B          -38.7277759369      -11.0135641476       21.9325766403  MEMB      75              0.0000000000
      9173        75  POPE      C11           -37.9853524541      -12.5710452702       20.5865952204  MEMB      75              0.0000000000
      9174        75  POPE      H11A          -38.4627381650      -13.3582155914       21.2085172339  MEMB      75              0.0000000000
      9175        75  POPE      H11B          -36.9614557298      -12.3943540468       20.9799611527  MEMB      75              0.0000000000
      9176        75  POPE      P             -36.9471594684      -12.5178847336       18.0611365009  MEMB      75              0.0000000000
      9177        75  POPE      O13           -35.5816392186      -12.8442746906       18.6115781372  MEMB      75              0.0000000000
      9178        75  POPE      O14           -37.1824227387      -11.1083536884       17.6469207920  MEMB      75              0.0000000000
      9179        75  POPE      O11           -37.3360460978      -13.4790422373       16.8917047840  MEMB      75              0.0000000000
      9180        75  POPE      O12           -37.9767732628      -12.8888270189       19.2132563044  MEMB      75              0.0000000000
      9181        75  POPE      C1            -37.2076288587      -14.8585977223       16.9669751038  MEMB      75              0.0000000000
      9182        75  POPE      HA            -37.8731479293      -15.1748131183       17.7984877096  MEMB      75              0.0000000000
      9183        75  POPE      HB            -36.2111104730      -15.1547369912       17.3588599826  MEMB      75              0.0000000000
      9184        75  POPE      C2            -37.6728310644      -15.4879522383       15.6210959692  MEMB      75              0.0000000000
      9185        75  POPE      HS            -37.4649361213      -16.5787174329       15.5845945231  MEMB      75              0.0000000000
      9186        75  POPE      O21           -36.9192729820      -14.9020258545       14.5275660836  MEMB      75              0.0000000000
      9187        75  POPE      C21           -35.7168853110      -15.4303757602       14.3385064483  MEMB      75              0.0000000000
      9188        75  POPE      O22           -35.2136396393      -16.2815294066       15.0290903065  MEMB      75              0.0000000000
      9189        75  POPE      C22           -35.1416303553      -14.6576399378       13.1010967339  MEMB      75              0.0000000000
      9190        75  POPE      H2R           -35.0988404303      -15.3687419324       12.2485569094  MEMB      75              0.0000000000
      9191        75  POPE      H2S           -34.0876182753      -14.4710147329       13.3986713044  MEMB      75              0.0000000000
      9192        75  POPE      C3            -39.1920730049      -15.3360250387       15.3226490150  MEMB      75              0.0000000000
      9193        75  POPE      HX            -39.7064435414      -15.5665555877       16.2800411642  MEMB      75              0.0000000000
      9194        75  POPE      HY            -39.5381721616      -15.9956356211       14.4983612374  MEMB      75              0.0000000000
      9195        75  POPE      O31           -39.4350716976      -13.9875572842       15.0699269464  MEMB      75              0.0000000000
      9196        75  POPE      C31           -39.8096691979      -13.5050056876       13.8346046401  MEMB      75              0.0000000000
      9197        75  POPE      O32           -39.7286460485      -14.1071238161       12.8153258436  MEMB      75              0.0000000000
      9198        75  POPE      C32           -40.4103583083      -12.0642624456       13.8849231172  MEMB      75              0.0000000000
      9199        75  POPE      H2X           -39.8585871644      -11.5320060211       14.6890206307  MEMB      75              0.0000000000
      9200        75  POPE      H2Y           -41.4935680123      -12.0920109735       14.1302957128  MEMB      75              0.0000000000
      9201        75  POPE      C23           -36.0419116086      -13.4738246455       12.5763544057  MEMB      75              0.0000000000
      9202        75  POPE      H3R           -36.5182149292      -12.8424606793       13.3566337401  MEMB      75              0.0000000000
      9203        75  POPE      H3S           -36.8051664996      -13.9828397592       11.9497232653  MEMB      75              0.0000000000
      9204        75  POPE      C24           -35.2511263009      -12.4532001895       11.7326519409  MEMB      75              0.0000000000
      9205        75  POPE      H4R           -34.6726261960      -12.9750552709       10.9406127984  MEMB      75              0.0000000000
      9206        75  POPE      H4S           -34.4367786030      -11.9884721082       12.3286273517  MEMB      75              0.0000000000
      9207        75  POPE      C25           -36.1970970042      -11.4018661608       11.0749541065  MEMB      75              0.0000000000
      9208        75  POPE      H5R           -35.4488867177      -10.8327669496       10.4828154220  MEMB      75              0.0000000000
      9209        75  POPE      H5S           -36.6086807968      -10.7468215098       11.8723472925  MEMB      75              0.0000000000
      9210        75  POPE      C26           -37.2445803594      -11.8802840842       10.1475900738  MEMB      75              0.0000000000
      9211        75  POPE      H6R           -37.6489466448      -10.9687322405        9.6578122276  MEMB      75              0.0000000000
      9212        75  POPE      H6S           -38.1025447080      -12.4185173112       10.6042333047  MEMB      75              0.0000000000
      9213        75  POPE      C27           -36.7271062859      -12.9248262136        9.0924036350  MEMB      75              0.0000000000
      9214        75  POPE      H7R           -36.1033732562      -13.6968454055        9.5916668835  MEMB      75              0.0000000000
      9215        75  POPE      H7S           -35.9914100051      -12.4632070205        8.3995969770  MEMB      75              0.0000000000
      9216        75  POPE      C28           -37.9267899941      -13.6695841887        8.4536869075  MEMB      75              0.0000000000
      9217        75  POPE      H8R           -38.4103555538      -14.0899489377        9.3613087018  MEMB      75              0.0000000000
      9218        75  POPE      H8S           -37.6213763591      -14.4954339574        7.7761795233  MEMB      75              0.0000000000
      9219        75  POPE      C29           -38.6711052895      -12.5877017268        7.6627217757  MEMB      75              0.0000000000
      9220        75  POPE      H91           -39.3734605982      -11.9415846621        8.2097405615  MEMB      75              0.0000000000
      9221        75  POPE      C210          -38.6090193682      -12.4278398721        6.3129229235  MEMB      75              0.0000000000
      9222        75  POPE      H101          -39.1981920912      -11.6136904041        5.8656687422  MEMB      75              0.0000000000
      9223        75  POPE      C211          -37.7333880948      -13.2231357674        5.3313266152  MEMB      75              0.0000000000
      9224        75  POPE      H11R          -36.9590910206      -13.8475033178        5.8262513863  MEMB      75              0.0000000000
      9225        75  POPE      H11S          -37.3024684338      -12.5136747739        4.5928865321  MEMB      75              0.0000000000
      9226        75  POPE      C212          -38.5268557177      -14.1472097957        4.3847327419  MEMB      75              0.0000000000
      9227        75  POPE      H12R          -38.9507083100      -14.9221751362        5.0586017276  MEMB      75              0.0000000000
      9228        75  POPE      H12S          -37.7479814870      -14.7153008273        3.8325114531  MEMB      75              0.0000000000
      9229        75  POPE      C213          -39.4951093367      -13.4597189527        3.4450798306  MEMB      75              0.0000000000
      9230        75  POPE      H13R          -40.2879936236      -13.0082668687        4.0789941485  MEMB      75              0.0000000000
      9231        75  POPE      H13S          -39.8892135118      -14.1900735244        2.7064424318  MEMB      75              0.0000000000
      9232        75  POPE      C214          -39.0136404219      -12.3256354330        2.5993420448  MEMB      75              0.0000000000
      9233        75  POPE      H14R          -38.7845514624      -11.4442469366        3.2357335924  MEMB      75              0.0000000000
      9234        75  POPE      H14S          -39.8533710312      -12.0422688388        1.9293586215  MEMB      75              0.0000000000
      9235        75  POPE      C215          -37.8100959262      -12.5305854463        1.7834587364  MEMB      75              0.0000000000
      9236        75  POPE      H15R          -36.9561250385      -12.7415572870        2.4620933087  MEMB      75              0.0000000000
      9237        75  POPE      H15S          -37.5558454091      -11.5930840067        1.2442281076  MEMB      75              0.0000000000
      9238        75  POPE      C216          -37.8458272376      -13.5698721780        0.6536893746  MEMB      75              0.0000000000
      9239        75  POPE      H16R          -38.7907337586      -13.4941574011        0.0742585129  MEMB      75              0.0000000000
      9240        75  POPE      H16S          -37.8848940912      -14.5715590730        1.1326661090  MEMB      75              0.0000000000
      9241        75  POPE      C217          -36.5154055654      -13.6683154125       -0.1992313303  MEMB      75              0.0000000000
      9242        75  POPE      H17R          -36.5493651932      -12.8679408660       -0.9690170334  MEMB      75              0.0000000000
      9243        75  POPE      H17S          -36.6126884781      -14.6726457382       -0.6641817294  MEMB      75              0.0000000000
      9244        75  POPE      C218          -35.1933710591      -13.5974462570        0.5900936822  MEMB      75              0.0000000000
      9245        75  POPE      H18R          -35.0533626510      -12.5641175854        0.9734339349  MEMB      75              0.0000000000
      9246        75  POPE      H18S          -34.3026116748      -13.8668906636       -0.0167589131  MEMB      75              0.0000000000
      9247        75  POPE      H18T          -35.2179616010      -14.3487170912        1.4082061811  MEMB      75              0.0000000000
      9248        75  POPE      C33           -40.3112081319      -11.4079383427       12.5153592790  MEMB      75              0.0000000000
      9249        75  POPE      H3X           -40.5853247713      -12.0994744144       11.6901567218  MEMB      75              0.0000000000
      9250        75  POPE      H3Y           -39.2568513210      -11.0839436229       12.3823906597  MEMB      75              0.0000000000
      9251        75  POPE      C34           -41.1197664959      -10.0481496735       12.5726587367  MEMB      75              0.0000000000
      9252        75  POPE      H4X           -40.6821201882       -9.3676266659       13.3340229787  MEMB      75              0.0000000000
      9253        75  POPE      H4Y           -42.1957457482      -10.1350105420       12.8354218576  MEMB      75              0.0000000000
      9254        75  POPE      C35           -41.0096347266       -9.1607314401       11.3223674594  MEMB      75              0.0000000000
      9255        75  POPE      H5X           -41.6365127779       -8.2780116114       11.5716672823  MEMB      75              0.0000000000
      9256        75  POPE      H5Y           -41.5039951122       -9.7072272642       10.4909403585  MEMB      75              0.0000000000
      9257        75  POPE      C36           -39.5811299810       -8.8077487240       10.8627644664  MEMB      75              0.0000000000
      9258        75  POPE      H6X           -38.9714461701       -9.7101019361       10.6428433487  MEMB      75              0.0000000000
      9259        75  POPE      H6Y           -39.0845599347       -8.2231198157       11.6664736347  MEMB      75              0.0000000000
      9260        75  POPE      C37           -39.6544507768       -8.0911632008        9.4777749623  MEMB      75              0.0000000000
      9261        75  POPE      H7X           -40.0777506857       -7.0883485409        9.7002619461  MEMB      75              0.0000000000
      9262        75  POPE      H7Y           -40.3840487279       -8.5253465762        8.7611913393  MEMB      75              0.0000000000
      9263        75  POPE      C38           -38.2926954476       -8.0093883876        8.8314401862  MEMB      75              0.0000000000
      9264        75  POPE      H8X           -37.8490683224       -9.0266971194        8.7804609159  MEMB      75              0.0000000000
      9265        75  POPE      H8Y           -37.5540458525       -7.4668937917        9.4594661373  MEMB      75              0.0000000000
      9266        75  POPE      C39           -38.2375233905       -7.4950882066        7.4070762080  MEMB      75              0.0000000000
      9267        75  POPE      H9X           -37.2427645083       -7.0226661330        7.2601321155  MEMB      75              0.0000000000
      9268        75  POPE      H9Y           -39.0074973792       -6.7069690955        7.2644954984  MEMB      75              0.0000000000
      9269        75  POPE      C310          -38.4150159484       -8.5053903046        6.3288987146  MEMB      75              0.0000000000
      9270        75  POPE      H10X          -38.7836559932       -7.9055094093        5.4694980755  MEMB      75              0.0000000000
      9271        75  POPE      H10Y          -39.1751188334       -9.1849573224        6.7702071962  MEMB      75              0.0000000000
      9272        75  POPE      C311          -37.2431889565       -9.3398011317        5.9224337532  MEMB      75              0.0000000000
      9273        75  POPE      H11X          -37.6312998280      -10.0749351205        5.1853665279  MEMB      75              0.0000000000
      9274        75  POPE      H11Y          -36.9387130392       -9.8565880619        6.8576060388  MEMB      75              0.0000000000
      9275        75  POPE      C312          -36.1489786743       -8.5546493065        5.1552955975  MEMB      75              0.0000000000
      9276        75  POPE      H12X          -35.4612880899       -7.8587181498        5.6816817485  MEMB      75              0.0000000000
      9277        75  POPE      H12Y          -36.6659745836       -7.9096500242        4.4129941094  MEMB      75              0.0000000000
      9278        75  POPE      C313          -35.2749712836       -9.6325658920        4.4276539630  MEMB      75              0.0000000000
      9279        75  POPE      H13X          -35.9645076370      -10.3971967952        4.0102811474  MEMB      75              0.0000000000
      9280        75  POPE      H13Y          -34.6690871006      -10.1167353574        5.2231445842  MEMB      75              0.0000000000
      9281        75  POPE      C314          -34.3210416229       -8.8044090786        3.4693264318  MEMB      75              0.0000000000
      9282        75  POPE      H14X          -33.3043361503       -8.8930406251        3.9083883184  MEMB      75              0.0000000000
      9283        75  POPE      H14Y          -34.6246094907       -7.7357468781        3.4579888247  MEMB      75              0.0000000000
      9284        75  POPE      C315          -34.2383366554       -9.2033505981        1.9828981213  MEMB      75              0.0000000000
      9285        75  POPE      H15X          -33.6024993821      -10.1023741737        1.8352877846  MEMB      75              0.0000000000
      9286        75  POPE      H15Y          -33.9709381065       -8.3620075098        1.3083893066  MEMB      75              0.0000000000
      9287        75  POPE      C316          -35.6556832276       -9.6478801533        1.5119057576  MEMB      75              0.0000000000
      9288        75  POPE      H16X          -35.9995450502      -10.6860223514        1.7077144086  MEMB      75              0.0000000000
      9289        75  POPE      H16Y          -35.5433633140       -9.6606097976        0.4066707349  MEMB      75              0.0000000000
      9290        75  POPE      H16Z          -36.5297787184       -9.0093284732        1.7619654335  MEMB      75              0.0000000000
      9291        76  QMPE      N              17.8006432159       34.5914841741       21.0737707450  MEMB      76              0.0000000000
      9292        76  QMPE      HN1            16.9149654328       34.5532888845       20.5299730866  MEMB      76              0.0000000000
      9293        76  QMPE      HN2            18.1690688478       33.6684620956       20.7673514274  MEMB      76              0.0000000000
      9294        76  QMPE      HN3            17.5998612168       34.7032760931       22.0880631920  MEMB      76              0.0000000000
      9295        76  QMPE      C12            18.5082612937       35.7906912294       20.6025676779  MEMB      76              0.0000000000
      9296        76  QMPE      H12A           19.3964412818       35.9332652763       21.2545876482  MEMB      76              0.0000000000
      9297        76  QMPE      H12B           17.8423521759       36.6740361418       20.7054627537  MEMB      76              0.0000000000
      9298        76  QMPE      C11            18.8008418168       35.6556586778       19.1741401391  MEMB      76              0.0000000000
      9299        76  QMPE      H11A           19.2556411926       36.5688634750       18.7342133973  MEMB      76              0.0000000000
      9300        76  QMPE      H11B           17.8007458899       35.6101381381       18.6924172370  MEMB      76              0.0000000000
      9301        76  QMPE      P              19.2951052943       33.2802395722       18.2155766220  MEMB      76              0.0000000000
      9302        76  QMPE      O13            18.0867966177       33.4718577528       17.4254443781  MEMB      76              0.0000000000
      9303        76  QMPE      O14            19.3330973491       32.0849403832       19.1333242660  MEMB      76              0.0000000000
      9304        76  QMPE      O11            20.5665104347       33.1805970906       17.2972097048  MEMB      76              0.0000000000
      9305        76  QMPE      O12            19.6287224107       34.4925431107       19.0779664704  MEMB      76              0.0000000000
      9306        76  QMPE      C1             21.8746264766       33.2721954911       17.7381455810  MEMB      76              0.0000000000
      9307        76  QMPE      HA             22.0278880549       32.7799946810       18.7223052786  MEMB      76              0.0000000000
      9308        76  QMPE      HB             22.2591759371       34.3145135752       17.7341873659  MEMB      76              0.0000000000
      9309        76  QMPE      C2             22.8895376267       32.5760414393       16.7889923552  MEMB      76              0.0000000000
      9310        76  QMPE      HS             23.8820232831       32.5626551585       17.2881055061  MEMB      76              0.0000000000
      9311        76  QMPE      O21            22.8800962007       33.3881700409       15.6109389161  MEMB      76              0.0000000000
      9312        76  QMPE      C21            23.7374887361       34.4161960097       15.6257018772  MEMB      76              0.0000000000
      9313        76  QMPE      O22            24.6342581821       34.5514546466       16.4726290084  MEMB      76              0.0000000000
      9314        76  QMPE      C22            23.2576964715       35.4502609891       14.5921994258  MEMB      76              0.0000000000
      9315        76  QMPE      H2R            22.4703724693       36.0991341373       15.0319782571  MEMB      76              0.0000000000
      9316        76  QMPE      H2S            23.0266022617       34.9465163665       13.6293088542  MEMB      76              0.0000000000
      9317        76  QMPE      C3             22.6589070126       31.1242913687       16.2967562217  MEMB      76              0.0000000000
      9318        76  QMPE      HX             22.7620344025       30.4636076247       17.1839893947  MEMB      76              0.0000000000
      9319        76  QMPE      HY             23.4188510157       30.8193639982       15.5458729537  MEMB      76              0.0000000000
      9320        76  QMPE      O31            21.3540605061       30.8960032688       15.8458663577  MEMB      76              0.0000000000
      9321        76  QMPE      C31            21.1001984274       31.2906298627       14.6419478986  MEMB      76              0.0000000000
      9322        76  QMPE      O32            21.8732140830       31.6044831304       13.7249035265  MEMB      76              0.0000000000
      9323        76  QMPE      C32            19.5905793654       31.1202129431       14.4984557002  MEMB      76              0.0000000000
      9324        76  QMPE      H2X            19.3819810870       30.0290031292       14.4901916536  MEMB      76              0.0000000000
      9325        76  QMPE      H2Y            19.0765976787       31.5930263838       15.3625107592  MEMB      76              0.0000000000
      9326        76  QMPE      C23            24.4381636259       36.3912773776       14.2548098220  MEMB      76              0.0000000000
      9327        76  QMPE      H3R            25.2547606158       35.7068240617       13.9401444864  MEMB      76              0.0000000000
      9328        76  QMPE      H3S            24.9032849770       37.0033061052       15.0569346386  MEMB      76              0.0000000000
      9329        76  QMPE      C24            24.1592708174       37.4159998603       13.1569273731  MEMB      76              0.0000000000
      9330        76  QMPE      H4R            25.0225462318       38.1072648448       13.0509603546  MEMB      76              0.0000000000
      9331        76  QMPE      H4S            23.3154857293       38.0845413693       13.4315182515  MEMB      76              0.0000000000
      9332        76  QMPE      C25            23.9684488010       36.7263609326       11.7956115584  MEMB      76              0.0000000000
      9333        76  QMPE      H5R            23.2209068864       35.9102476577       11.6983430697  MEMB      76              0.0000000000
      9334        76  QMPE      H5S            24.8966789766       36.1641243891       11.5577043533  MEMB      76              0.0000000000
      9335        76  QMPE      C26            23.6398594978       37.7230376698       10.6821611874  MEMB      76              0.0000000000
      9336        76  QMPE      H6R            24.5074046264       38.3535579361       10.3921089284  MEMB      76              0.0000000000
      9337        76  QMPE      H6S            22.7130967651       38.2886539568       10.9177667937  MEMB      76              0.0000000000
      9338        76  QMPE      C27            23.3667147765       36.9810699487        9.4441964845  MEMB      76              0.0000000000
      9339        76  QMPE      H7R            22.3565414257       36.5355387681        9.5681823793  MEMB      76              0.0000000000
      9340        76  QMPE      H7S            24.1441507002       36.2050804970        9.2775984827  MEMB      76              0.0000000000
      9341        76  QMPE      C28            23.3655213850       37.7699586760        8.1566813803  MEMB      76              0.0000000000
      9342        76  QMPE      H8R            22.6325637852       38.5922363388        8.3014350542  MEMB      76              0.0000000000
      9343        76  QMPE      H8S            23.1492512456       37.0712121511        7.3204390087  MEMB      76              0.0000000000
      9344        76  QMPE      C29            24.6714799549       38.3557248390        7.6186828300  MEMB      76              0.0000000000
      9345        76  QMPE      H9R            25.5268513132       37.6490257058        7.6755803710  MEMB      76              0.0000000000
      9346        76  QMPE      C217           25.0753364666       39.7722720259        7.8685026546  MEMB      76              0.0000000000
      9347        76  QMPE      H17R           24.2657299330       40.3515688990        8.2949317435  MEMB      76              0.0000000000
      9348        76  QMPE      H17S           26.0820469273       40.1498035740        7.9984782064  MEMB      76              0.0000000000
      9349        76  QMPE      C210           24.7157963593       39.3228105066        6.4444458673  MEMB      76              0.0000000000
      9350        76  QMPE      H10R           25.5707798924       39.0263867544        5.7998862870  MEMB      76              0.0000000000
      9351        76  QMPE      C211           23.4672294727       39.7064628711        5.7073679185  MEMB      76              0.0000000000
      9352        76  QMPE      H11R           22.7387454117       38.8678890105        5.7279963328  MEMB      76              0.0000000000
      9353        76  QMPE      H11S           22.9450300796       40.5090147650        6.2708740671  MEMB      76              0.0000000000
      9354        76  QMPE      C212           23.7241186414       40.0781181227        4.2532054143  MEMB      76              0.0000000000
      9355        76  QMPE      H12R           23.7747631103       39.1731849075        3.6106694021  MEMB      76              0.0000000000
      9356        76  QMPE      H12S           24.6762379492       40.6295926719        4.0993660288  MEMB      76              0.0000000000
      9357        76  QMPE      C213           22.5459456681       41.0142679981        3.7289622123  MEMB      76              0.0000000000
      9358        76  QMPE      H13R           22.6455408568       41.3529920328        2.6755536096  MEMB      76              0.0000000000
      9359        76  QMPE      H13S           22.4891191414       41.8743285341        4.4299530716  MEMB      76              0.0000000000
      9360        76  QMPE      C214           21.1316784662       40.4291746640        3.9744065583  MEMB      76              0.0000000000
      9361        76  QMPE      H14R           20.3404547417       41.1712609981        3.7344199617  MEMB      76              0.0000000000
      9362        76  QMPE      H14S           21.1097181134       40.1345581691        5.0454063788  MEMB      76              0.0000000000
      9363        76  QMPE      C215           20.8499924681       39.1985080671        3.0596177118  MEMB      76              0.0000000000
      9364        76  QMPE      H15R           21.6032972665       38.4211167532        3.3096501896  MEMB      76              0.0000000000
      9365        76  QMPE      H15S           21.0604927040       39.5071935813        2.0133284435  MEMB      76              0.0000000000
      9366        76  QMPE      C216           19.5273883417       38.4915542465        3.3571905948  MEMB      76              0.0000000000
      9367        76  QMPE      H16R           18.6405580550       39.1283443014        3.5629858302  MEMB      76              0.0000000000
      9368        76  QMPE      H16S           19.7378042648       38.0875785044        4.3705274003  MEMB      76              0.0000000000
      9369        76  QMPE      H16T           19.2207322878       37.6993963892        2.6411118276  MEMB      76              0.0000000000
      9370        76  QMPE      C33            19.0693206947       31.7866250592       13.1487467684  MEMB      76              0.0000000000
      9371        76  QMPE      H3X            18.0029313006       31.5301871307       12.9716191218  MEMB      76              0.0000000000
      9372        76  QMPE      H3Y            19.6106398064       31.3857471750       12.2652355980  MEMB      76              0.0000000000
      9373        76  QMPE      C34            19.0115866967       33.3319969602       13.2020308871  MEMB      76              0.0000000000
      9374        76  QMPE      H4X            20.0676465601       33.5781617763       13.4438191105  MEMB      76              0.0000000000
      9375        76  QMPE      H4Y            18.3722731086       33.6955939405       14.0347351491  MEMB      76              0.0000000000
      9376        76  QMPE      C35            18.4027032453       34.0696127620       11.9315859645  MEMB      76              0.0000000000
      9377        76  QMPE      H5X            18.5818501644       35.1593300710       12.0530074129  MEMB      76              0.0000000000
      9378        76  QMPE      H5Y            17.3120601291       33.8604235952       11.8990501060  MEMB      76              0.0000000000
      9379        76  QMPE      C36            18.9007232057       33.7931582170       10.4948948626  MEMB      76              0.0000000000
      9380        76  QMPE      H6X            18.0222276849       34.0710564925        9.8741380945  MEMB      76              0.0000000000
      9381        76  QMPE      H6Y            19.0404965285       32.6932917709       10.5661570570  MEMB      76              0.0000000000
      9382        76  QMPE      C37            20.1653730567       34.4227679154        9.9782002671  MEMB      76              0.0000000000
      9383        76  QMPE      H7X            20.0241395393       35.5215667918        9.8944428552  MEMB      76              0.0000000000
      9384        76  QMPE      H7Y            21.0939602458       34.2730720612       10.5695021971  MEMB      76              0.0000000000
      9385        76  QMPE      C38            20.6674360750       33.9114468457        8.5422520068  MEMB      76              0.0000000000
      9386        76  QMPE      H8X            21.6161096863       34.4650029299        8.3751742842  MEMB      76              0.0000000000
      9387        76  QMPE      H8Y            20.7225076940       32.8045803602        8.6205797075  MEMB      76              0.0000000000
      9388        76  QMPE      C39            19.7072314704       34.2691099979        7.2783026563  MEMB      76              0.0000000000
      9389        76  QMPE      H9X            18.6603274002       34.3280486751        7.6455071549  MEMB      76              0.0000000000
      9390        76  QMPE      H9Y            19.7742774051       33.4183280513        6.5669685481  MEMB      76              0.0000000000
      9391        76  QMPE      C310           19.9948728024       35.5542081480        6.5555636958  MEMB      76              0.0000000000
      9392        76  QMPE      H10X           20.3919321112       36.2779222700        7.2991381053  MEMB      76              0.0000000000
      9393        76  QMPE      H10Y           19.1857654170       36.0158382493        5.9501189591  MEMB      76              0.0000000000
      9394        76  QMPE      C311           21.0181695551       35.3461868215        5.4451127564  MEMB      76              0.0000000000
      9395        76  QMPE      H11X           21.6252705175       34.4872991244        5.8029687882  MEMB      76              0.0000000000
      9396        76  QMPE      H11Y           21.7393064983       36.1912918662        5.4361706056  MEMB      76              0.0000000000
      9397        76  QMPE      C312           20.3595493982       35.0703079673        4.0309829933  MEMB      76              0.0000000000
      9398        76  QMPE      H12X           19.7822084951       35.9872501484        3.7855929731  MEMB      76              0.0000000000
      9399        76  QMPE      H12Y           19.7730302376       34.1267954987        4.0209714188  MEMB      76              0.0000000000
      9400        76  QMPE      C313           21.5966908836       34.8192828969        3.1047183737  MEMB      76              0.0000000000
      9401        76  QMPE      H13X           22.2456794091       35.7169136324        3.0187323711  MEMB      76              0.0000000000
      9402        76  QMPE      H13Y           22.1993321407       33.9745548889        3.5016804392  MEMB      76              0.0000000000
      9403        76  QMPE      C314           21.2062443122       34.5722385258        1.6252734588  MEMB      76              0.0000000000
      9404        76  QMPE      H14X           20.8218415815       33.5311494655        1.6771283179  MEMB      76              0.0000000000
      9405        76  QMPE      H14Y           22.1139553633       34.6492148625        0.9893038218  MEMB      76              0.0000000000
      9406        76  QMPE      C315           20.0325828884       35.3366095668        1.0054249558  MEMB      76              0.0000000000
      9407        76  QMPE      H15X           19.8059074102       35.1849954037       -0.0715855962  MEMB      76              0.0000000000
      9408        76  QMPE      H15Y           19.1527633984       35.1123157358        1.6456839188  MEMB      76              0.0000000000
      9409        76  QMPE      H15Z           20.2544006473       36.4173143992        1.1365521829  MEMB      76              0.0000000000
      9410        77  PMPE      N             -24.2723997779       29.0075600648       21.3974901778  MEMB      77              0.0000000000
      9411        77  PMPE      HN1           -23.9857162183       28.3129314667       20.6785302008  MEMB      77              0.0000000000
      9412        77  PMPE      HN2           -23.5792459462       29.7749519470       21.5081586541  MEMB      77              0.0000000000
      9413        77  PMPE      HN3           -24.3009526780       28.4436634551       22.2708775152  MEMB      77              0.0000000000
      9414        77  PMPE      C12           -25.5832545082       29.6338929742       20.9767180463  MEMB      77              0.0000000000
      9415        77  PMPE      H12A          -26.1049489672       29.9299317401       21.9118740139  MEMB      77              0.0000000000
      9416        77  PMPE      H12B          -26.2169230304       28.8058212065       20.5932046950  MEMB      77              0.0000000000
      9417        77  PMPE      C11           -25.2676147146       30.7937636713       20.0318993016  MEMB      77              0.0000000000
      9418        77  PMPE      H11A          -24.7740384094       31.5574070316       20.6702975149  MEMB      77              0.0000000000
      9419        77  PMPE      H11B          -26.2118147480       31.1686590462       19.5821651917  MEMB      77              0.0000000000
      9420        77  PMPE      P             -23.7617562787       31.3240335566       17.8957898849  MEMB      77              0.0000000000
      9421        77  PMPE      O13           -23.2841040476       30.4536880274       16.7715137594  MEMB      77              0.0000000000
      9422        77  PMPE      O14           -22.6595595260       32.0749993981       18.6213385038  MEMB      77              0.0000000000
      9423        77  PMPE      O11           -24.7280670252       32.3848774605       17.3668822823  MEMB      77              0.0000000000
      9424        77  PMPE      O12           -24.4769473239       30.2732080434       18.9383680448  MEMB      77              0.0000000000
      9425        77  PMPE      C1            -25.8016148057       32.0647338269       16.4802028721  MEMB      77              0.0000000000
      9426        77  PMPE      HA            -26.5427481234       32.8817533938       16.6125724769  MEMB      77              0.0000000000
      9427        77  PMPE      HB            -26.2422329734       31.0775945164       16.7365869133  MEMB      77              0.0000000000
      9428        77  PMPE      C2            -25.2951370244       32.1029007426       15.0169535124  MEMB      77              0.0000000000
      9429        77  PMPE      HS            -24.5802465276       31.2597103914       14.9061267714  MEMB      77              0.0000000000
      9430        77  PMPE      O21           -24.6782109003       33.3577480248       14.7573319498  MEMB      77              0.0000000000
      9431        77  PMPE      C21           -23.7533003271       33.4023272469       13.7868125616  MEMB      77              0.0000000000
      9432        77  PMPE      O22           -23.2915066158       32.4234623703       13.2978353976  MEMB      77              0.0000000000
      9433        77  PMPE      C22           -23.2760491852       34.8731144223       13.5407199483  MEMB      77              0.0000000000
      9434        77  PMPE      H2R           -22.5489134717       35.0362053653       14.3647318357  MEMB      77              0.0000000000
      9435        77  PMPE      H2S           -23.9841858363       35.6969984223       13.7732689612  MEMB      77              0.0000000000
      9436        77  PMPE      C3            -26.4589703260       31.8753749059       14.0852831797  MEMB      77              0.0000000000
      9437        77  PMPE      HX            -27.3438736315       32.4319384375       14.4614539311  MEMB      77              0.0000000000
      9438        77  PMPE      HY            -26.6075028525       30.7815088458       14.2106471141  MEMB      77              0.0000000000
      9439        77  PMPE      O31           -26.2198524142       32.0977893052       12.7006348951  MEMB      77              0.0000000000
      9440        77  PMPE      C31           -27.1994054977       31.5938115191       11.9096463654  MEMB      77              0.0000000000
      9441        77  PMPE      O32           -28.0425036747       30.8102278440       12.3046270923  MEMB      77              0.0000000000
      9442        77  PMPE      C32           -27.1108546464       32.0700044364       10.4061850757  MEMB      77              0.0000000000
      9443        77  PMPE      H2X           -26.1978141636       31.8280914511        9.8212437627  MEMB      77              0.0000000000
      9444        77  PMPE      H2Y           -27.0563749136       33.1779571079       10.4677786236  MEMB      77              0.0000000000
      9445        77  PMPE      C23           -22.6984883329       35.0695646346       12.1746564376  MEMB      77              0.0000000000
      9446        77  PMPE      H3R           -21.9335691016       34.3463704329       11.8193963022  MEMB      77              0.0000000000
      9447        77  PMPE      H3S           -22.1195281162       36.0123099245       12.2764297506  MEMB      77              0.0000000000
      9448        77  PMPE      C24           -23.7858583245       35.2550979423       11.1081502952  MEMB      77              0.0000000000
      9449        77  PMPE      H4R           -24.5459303356       35.9365911440       11.5465321581  MEMB      77              0.0000000000
      9450        77  PMPE      H4S           -24.4186817139       34.3896576562       10.8168284122  MEMB      77              0.0000000000
      9451        77  PMPE      C25           -23.2739204243       35.8720922982        9.7999291521  MEMB      77              0.0000000000
      9452        77  PMPE      H5R           -22.6060987623       35.0997689477        9.3619201626  MEMB      77              0.0000000000
      9453        77  PMPE      H5S           -22.7350680273       36.7820631167       10.1403884289  MEMB      77              0.0000000000
      9454        77  PMPE      C26           -24.3090077707       36.2847451370        8.7340414669  MEMB      77              0.0000000000
      9455        77  PMPE      H6R           -23.7927479935       36.8071121790        7.9004174025  MEMB      77              0.0000000000
      9456        77  PMPE      H6S           -25.1615201224       36.8758823725        9.1316602067  MEMB      77              0.0000000000
      9457        77  PMPE      C27           -24.9223522854       35.0848314242        7.9252369315  MEMB      77              0.0000000000
      9458        77  PMPE      H7R           -25.4029928744       35.5027935472        7.0149553952  MEMB      77              0.0000000000
      9459        77  PMPE      H7S           -25.5318298527       34.4695809658        8.6211715192  MEMB      77              0.0000000000
      9460        77  PMPE      C28           -23.8518458426       34.0911094627        7.5952515881  MEMB      77              0.0000000000
      9461        77  PMPE      H8R           -23.4724693104       33.5344478084        8.4787241252  MEMB      77              0.0000000000
      9462        77  PMPE      H8S           -23.0721047704       34.5695886962        6.9648694668  MEMB      77              0.0000000000
      9463        77  PMPE      C29           -24.5517577138       33.0161169962        6.6815778486  MEMB      77              0.0000000000
      9464        77  PMPE      H9R           -25.2123352353       33.5015646717        5.9317117933  MEMB      77              0.0000000000
      9465        77  PMPE      C217          -24.8772064953       31.6118879879        7.2235645990  MEMB      77              0.0000000000
      9466        77  PMPE      H17R          -25.7617319848       31.1716512989        6.7800611523  MEMB      77              0.0000000000
      9467        77  PMPE      H17S          -24.3912637189       31.2814041266        8.1332508447  MEMB      77              0.0000000000
      9468        77  PMPE      C210          -23.7503927433       31.8087164508        6.1583059322  MEMB      77              0.0000000000
      9469        77  PMPE      H10R          -24.1332182833       31.5597099451        5.1455073556  MEMB      77              0.0000000000
      9470        77  PMPE      C211          -22.3246870989       31.4899245320        6.5314748815  MEMB      77              0.0000000000
      9471        77  PMPE      H11R          -22.0667028567       30.5193934221        6.0562546384  MEMB      77              0.0000000000
      9472        77  PMPE      H11S          -22.1091437574       31.4243469076        7.6193915077  MEMB      77              0.0000000000
      9473        77  PMPE      C212          -21.2429338757       32.4794545679        6.0351927566  MEMB      77              0.0000000000
      9474        77  PMPE      H12R          -20.3109575500       32.1561663167        6.5462952638  MEMB      77              0.0000000000
      9475        77  PMPE      H12S          -21.3992765349       33.5360766386        6.3408523373  MEMB      77              0.0000000000
      9476        77  PMPE      C213          -20.9604855957       32.5968699575        4.4707737817  MEMB      77              0.0000000000
      9477        77  PMPE      H13R          -21.0534684853       31.5247751101        4.1945712357  MEMB      77              0.0000000000
      9478        77  PMPE      H13S          -19.9421941983       32.9725813230        4.2336145679  MEMB      77              0.0000000000
      9479        77  PMPE      C214          -22.1425311839       33.2877281744        3.7242298712  MEMB      77              0.0000000000
      9480        77  PMPE      H14R          -22.4706702032       34.2280539360        4.2166049003  MEMB      77              0.0000000000
      9481        77  PMPE      H14S          -23.0340750926       32.6251689543        3.7462678139  MEMB      77              0.0000000000
      9482        77  PMPE      C215          -21.7084077552       33.4629129547        2.2850536958  MEMB      77              0.0000000000
      9483        77  PMPE      H15R          -20.6966036700       33.9086657774        2.1760700283  MEMB      77              0.0000000000
      9484        77  PMPE      H15S          -22.4555643047       34.1626438368        1.8532486578  MEMB      77              0.0000000000
      9485        77  PMPE      C216          -21.8235718761       32.2430432610        1.4211076328  MEMB      77              0.0000000000
      9486        77  PMPE      H16R          -21.8301852993       32.6068453924        0.3713815471  MEMB      77              0.0000000000
      9487        77  PMPE      H16S          -21.0176700785       31.5293723594        1.6959118404  MEMB      77              0.0000000000
      9488        77  PMPE      H16T          -22.8343432144       31.7826974207        1.3938345798  MEMB      77              0.0000000000
      9489        77  PMPE      C33           -28.4161039845       31.8358204432        9.6958524663  MEMB      77              0.0000000000
      9490        77  PMPE      H3X           -29.2203730167       32.3620124070       10.2531624611  MEMB      77              0.0000000000
      9491        77  PMPE      H3Y           -28.6148837449       30.7677013276        9.9280781755  MEMB      77              0.0000000000
      9492        77  PMPE      C34           -28.5391421950       32.2284480412        8.1666317890  MEMB      77              0.0000000000
      9493        77  PMPE      H4X           -27.5621281460       32.0970844515        7.6542764965  MEMB      77              0.0000000000
      9494        77  PMPE      H4Y           -28.8001793512       33.3076106706        8.1267744038  MEMB      77              0.0000000000
      9495        77  PMPE      C35           -29.6792864308       31.4546763976        7.3821915653  MEMB      77              0.0000000000
      9496        77  PMPE      H5X           -30.6739413832       31.6336873990        7.8436432008  MEMB      77              0.0000000000
      9497        77  PMPE      H5Y           -29.3933716160       30.3865374282        7.4901413040  MEMB      77              0.0000000000
      9498        77  PMPE      C36           -29.7836246336       31.9304985766        5.9507809354  MEMB      77              0.0000000000
      9499        77  PMPE      H6X           -30.1081692190       32.9894429387        6.0381226941  MEMB      77              0.0000000000
      9500        77  PMPE      H6Y           -30.6581124283       31.4067795724        5.5088405807  MEMB      77              0.0000000000
      9501        77  PMPE      C37           -28.5002568985       31.8746533228        5.1336035044  MEMB      77              0.0000000000
      9502        77  PMPE      H7X           -27.5596570002       32.0500246716        5.6982608078  MEMB      77              0.0000000000
      9503        77  PMPE      H7Y           -28.5134315261       32.6089894572        4.2999980791  MEMB      77              0.0000000000
      9504        77  PMPE      C38           -28.4284318600       30.5620018577        4.3072700525  MEMB      77              0.0000000000
      9505        77  PMPE      H8X           -29.2719679809       30.4825872268        3.5886183667  MEMB      77              0.0000000000
      9506        77  PMPE      H8Y           -28.4847835113       29.6535521499        4.9443449978  MEMB      77              0.0000000000
      9507        77  PMPE      C39           -27.1959417161       30.3332246313        3.3503567429  MEMB      77              0.0000000000
      9508        77  PMPE      H9X           -27.3666331569       29.3224381273        2.9219922817  MEMB      77              0.0000000000
      9509        77  PMPE      H9Y           -26.3959684417       30.3451143458        4.1212149305  MEMB      77              0.0000000000
      9510        77  PMPE      C310          -26.8985265333       31.4943825738        2.3269307914  MEMB      77              0.0000000000
      9511        77  PMPE      H10X          -25.8844582049       31.4385615089        1.8765197357  MEMB      77              0.0000000000
      9512        77  PMPE      H10Y          -26.9327447796       32.4714312559        2.8546860751  MEMB      77              0.0000000000
      9513        77  PMPE      C311          -27.8476371804       31.5587743867        1.0963881542  MEMB      77              0.0000000000
      9514        77  PMPE      H11X          -28.8220677498       31.9547944122        1.4541233786  MEMB      77              0.0000000000
      9515        77  PMPE      H11Y          -28.0440285894       30.5492404591        0.6761595939  MEMB      77              0.0000000000
      9516        77  PMPE      C312          -27.3473712673       32.3592987898       -0.0845142957  MEMB      77              0.0000000000
      9517        77  PMPE      H12X          -27.9897527011       32.2077251767       -0.9782089695  MEMB      77              0.0000000000
      9518        77  PMPE      H12Y          -26.3206141849       32.0979895466       -0.4188915107  MEMB      77              0.0000000000
      9519        77  PMPE      C313          -27.4496458048       33.8889119813        0.2052983717  MEMB      77              0.0000000000
      9520        77  PMPE      H13X          -28.4267145446       34.1329202373        0.6744653977  MEMB      77              0.0000000000
      9521        77  PMPE      H13Y          -27.3997508080       34.3839733040       -0.7880530119  MEMB      77              0.0000000000
      9522        77  PMPE      C314          -26.2194767856       34.4890493998        0.9960544625  MEMB      77              0.0000000000
      9523        77  PMPE      H14X          -25.5753035719       34.9953196903        0.2456856738  MEMB      77              0.0000000000
      9524        77  PMPE      H14Y          -25.6862134024       33.5683838013        1.3159383476  MEMB      77              0.0000000000
      9525        77  PMPE      C315          -26.5892680776       35.4563416835        2.1545604039  MEMB      77              0.0000000000
      9526        77  PMPE      H15X          -27.4514561725       35.1498723666        2.7846624930  MEMB      77              0.0000000000
      9527        77  PMPE      H15Y          -26.8896891809       36.3546284541        1.5739140605  MEMB      77              0.0000000000
      9528        77  PMPE      C316          -25.3412898931       35.9080839406        2.9296777157  MEMB      77              0.0000000000
      9529        77  PMPE      H16X          -25.6194864652       36.8439752039        3.4598058397  MEMB      77              0.0000000000
      9530        77  PMPE      H16Y          -24.4196983411       35.9786034429        2.3132224779  MEMB      77              0.0000000000
      9531        77  PMPE      H16Z          -25.1281260018       35.1384010756        3.7019929361  MEMB      77              0.0000000000
      9532        78  POPE      N              10.9468687434       35.5354269440       20.6317667118  MEMB      78              0.0000000000
      9533        78  POPE      HN1            10.4678809539       35.4416958502       19.7134066979  MEMB      78              0.0000000000
      9534        78  POPE      HN2            10.7881969321       34.5840585190       21.0207675344  MEMB      78              0.0000000000
      9535        78  POPE      HN3            10.5256707597       36.2510548781       21.2579209407  MEMB      78              0.0000000000
      9536        78  POPE      C12            12.4064992576       35.8391192221       20.3779840693  MEMB      78              0.0000000000
      9537        78  POPE      H12A           12.7110366579       35.1013486473       19.6051499334  MEMB      78              0.0000000000
      9538        78  POPE      H12B           12.8976005888       35.6588972933       21.3581168755  MEMB      78              0.0000000000
      9539        78  POPE      C11            12.6261883928       37.3209635008       19.9471217864  MEMB      78              0.0000000000
      9540        78  POPE      H11A           13.6825830524       37.4084072373       19.6143983130  MEMB      78              0.0000000000
      9541        78  POPE      H11B           12.3475864248       37.9180404588       20.8416614398  MEMB      78              0.0000000000
      9542        78  POPE      P              11.8632107808       39.1128067052       18.2029450129  MEMB      78              0.0000000000
      9543        78  POPE      O13            12.3487325597       40.0318886161       19.2333389189  MEMB      78              0.0000000000
      9544        78  POPE      O14            10.6558013576       39.4623029195       17.4356515982  MEMB      78              0.0000000000
      9545        78  POPE      O11            13.0715356470       38.8502085188       17.1975864894  MEMB      78              0.0000000000
      9546        78  POPE      O12            11.7385923516       37.6915907714       18.9736054108  MEMB      78              0.0000000000
      9547        78  POPE      C1             14.3741221327       39.1628135326       17.6387758990  MEMB      78              0.0000000000
      9548        78  POPE      HA             14.7070643236       39.0016707842       18.6863938979  MEMB      78              0.0000000000
      9549        78  POPE      HB             14.3521621704       40.2707375708       17.7184204741  MEMB      78              0.0000000000
      9550        78  POPE      C2             15.5442834300       38.7335896631       16.6466296489  MEMB      78              0.0000000000
      9551        78  POPE      HS             16.3278852208       39.5040007008       16.8102012338  MEMB      78              0.0000000000
      9552        78  POPE      O21            15.1574314979       38.7120072707       15.2689406832  MEMB      78              0.0000000000
      9553        78  POPE      C21            14.6780252405       39.8218267626       14.7673578719  MEMB      78              0.0000000000
      9554        78  POPE      O22            14.7474952672       40.9557201355       15.2524630089  MEMB      78              0.0000000000
      9555        78  POPE      C22            13.9530449106       39.4733153718       13.4776029289  MEMB      78              0.0000000000
      9556        78  POPE      H2R            13.1006883707       38.8010900445       13.7140816608  MEMB      78              0.0000000000
      9557        78  POPE      H2S            14.5882276960       38.9067651320       12.7635405976  MEMB      78              0.0000000000
      9558        78  POPE      C3             15.9340269078       37.3134204540       16.9765776158  MEMB      78              0.0000000000
      9559        78  POPE      HX             16.4323848154       37.2707117917       17.9686141805  MEMB      78              0.0000000000
      9560        78  POPE      HY             16.7344380089       36.8105334850       16.3928245963  MEMB      78              0.0000000000
      9561        78  POPE      O31            14.7267174711       36.5655925540       17.0133616213  MEMB      78              0.0000000000
      9562        78  POPE      C31            14.5438143808       35.5589167011       16.2118561775  MEMB      78              0.0000000000
      9563        78  POPE      O32            15.4823233062       34.9946830854       15.6309654858  MEMB      78              0.0000000000
      9564        78  POPE      C32            13.1637069141       34.9887660585       16.1928912843  MEMB      78              0.0000000000
      9565        78  POPE      H2X            12.4396372057       35.6279248287       16.7419998815  MEMB      78              0.0000000000
      9566        78  POPE      H2Y            13.2356494360       34.0676316727       16.8098652868  MEMB      78              0.0000000000
      9567        78  POPE      C23            13.4281085624       40.8326588907       12.8692492835  MEMB      78              0.0000000000
      9568        78  POPE      H3R            14.2914189184       41.4826421955       12.6112986980  MEMB      78              0.0000000000
      9569        78  POPE      H3S            12.8204055747       41.3270179955       13.6570484989  MEMB      78              0.0000000000
      9570        78  POPE      C24            12.5338190644       40.7075357681       11.6193570372  MEMB      78              0.0000000000
      9571        78  POPE      H4R            13.1908371829       40.3269218473       10.8083195893  MEMB      78              0.0000000000
      9572        78  POPE      H4S            12.1767249309       41.6939443799       11.2535659649  MEMB      78              0.0000000000
      9573        78  POPE      C25            11.3174261750       39.7383955571       11.6225055494  MEMB      78              0.0000000000
      9574        78  POPE      H5R            10.5551882592       40.1031556905       12.3437995292  MEMB      78              0.0000000000
      9575        78  POPE      H5S            11.6109306701       38.8367759603       12.2015203016  MEMB      78              0.0000000000
      9576        78  POPE      C26            10.6493655160       39.5778374600       10.2969398813  MEMB      78              0.0000000000
      9577        78  POPE      H6R            10.5007777164       40.5651889431        9.8097241148  MEMB      78              0.0000000000
      9578        78  POPE      H6S             9.6832458765       39.0633384807       10.4872682825  MEMB      78              0.0000000000
      9579        78  POPE      C27            11.4921574749       38.7037990464        9.2778183056  MEMB      78              0.0000000000
      9580        78  POPE      H7R            11.1290996463       37.6616592325        9.4060937432  MEMB      78              0.0000000000
      9581        78  POPE      H7S            12.5784482629       38.7942546589        9.4925531712  MEMB      78              0.0000000000
      9582        78  POPE      C28            11.4143510034       39.2304933270        7.8377877172  MEMB      78              0.0000000000
      9583        78  POPE      H8R            12.1312993443       38.5946322512        7.2756611096  MEMB      78              0.0000000000
      9584        78  POPE      H8S            11.8694293507       40.2440117038        7.8401427632  MEMB      78              0.0000000000
      9585        78  POPE      C29            10.1038492534       39.1670810793        7.1703236688  MEMB      78              0.0000000000
      9586        78  POPE      H91             9.2337173693       39.3699334620        7.8119780857  MEMB      78              0.0000000000
      9587        78  POPE      C210            9.7847322319       38.6976627158        5.9211370648  MEMB      78              0.0000000000
      9588        78  POPE      H101            8.7386998571       38.7747126747        5.5896552554  MEMB      78              0.0000000000
      9589        78  POPE      C211           10.6229843550       38.1051956940        4.8200147064  MEMB      78              0.0000000000
      9590        78  POPE      H11R            9.9415620119       37.5958062463        4.1055167430  MEMB      78              0.0000000000
      9591        78  POPE      H11S           11.2338755767       37.3445351701        5.3515487497  MEMB      78              0.0000000000
      9592        78  POPE      C212           11.5339470482       39.0015599882        4.0581824867  MEMB      78              0.0000000000
      9593        78  POPE      H12R           11.9571837506       38.5348039272        3.1431253924  MEMB      78              0.0000000000
      9594        78  POPE      H12S           12.4285713173       39.2843140554        4.6531771323  MEMB      78              0.0000000000
      9595        78  POPE      C213           10.9582264934       40.3306404285        3.4993079577  MEMB      78              0.0000000000
      9596        78  POPE      H13R           11.6840976311       40.8687883864        2.8529105390  MEMB      78              0.0000000000
      9597        78  POPE      H13S           10.8226220272       41.0451052471        4.3392322790  MEMB      78              0.0000000000
      9598        78  POPE      C214            9.6374047840       40.2348715728        2.6307123895  MEMB      78              0.0000000000
      9599        78  POPE      H14R            9.2203134756       41.2517170739        2.4682908846  MEMB      78              0.0000000000
      9600        78  POPE      H14S            8.8510826267       39.7903423341        3.2775601900  MEMB      78              0.0000000000
      9601        78  POPE      C215            9.6253930412       39.4524901545        1.3058634864  MEMB      78              0.0000000000
      9602        78  POPE      H15R            8.5679421200       39.3411451418        0.9838053093  MEMB      78              0.0000000000
      9603        78  POPE      H15S            9.9053930771       38.4034391742        1.5412634466  MEMB      78              0.0000000000
      9604        78  POPE      C216           10.3940522825       40.1250460867        0.2628727888  MEMB      78              0.0000000000
      9605        78  POPE      H16R           11.3972994979       40.0506183730        0.7343348573  MEMB      78              0.0000000000
      9606        78  POPE      H16S           10.2657357679       41.2250300703        0.1740398624  MEMB      78              0.0000000000
      9607        78  POPE      C217           10.5082196752       39.5147121053       -1.1661041730  MEMB      78              0.0000000000
      9608        78  POPE      H17R           11.4760241300       39.8768855542       -1.5741567967  MEMB      78              0.0000000000
      9609        78  POPE      H17S            9.7114188451       39.8082803940       -1.8825180114  MEMB      78              0.0000000000
      9610        78  POPE      C218           10.6436319930       37.9768318753       -1.2042981682  MEMB      78              0.0000000000
      9611        78  POPE      H18R            9.7124730348       37.5784777593       -0.7475951073  MEMB      78              0.0000000000
      9612        78  POPE      H18S           11.5512983713       37.7788357430       -0.5949867939  MEMB      78              0.0000000000
      9613        78  POPE      H18T           10.8218035398       37.5750890257       -2.2246792103  MEMB      78              0.0000000000
      9614        78  POPE      C33            12.6526582875       34.6535145651       14.8620048254  MEMB      78              0.0000000000
      9615        78  POPE      H3X            11.7036603864       34.1284601950       15.1029239881  MEMB      78              0.0000000000
      9616        78  POPE      H3Y            13.3528474526       34.0202560217       14.2763088102  MEMB      78              0.0000000000
      9617        78  POPE      C34            12.3725025407       35.9658142947       14.0713921084  MEMB      78              0.0000000000
      9618        78  POPE      H4X            13.2445168479       36.5185668136       13.6610548292  MEMB      78              0.0000000000
      9619        78  POPE      H4Y            11.8599438804       36.7334207687       14.6897647472  MEMB      78              0.0000000000
      9620        78  POPE      C35            11.5573897362       35.5941306205       12.7380768897  MEMB      78              0.0000000000
      9621        78  POPE      H5X            10.7426779154       36.3330813341       12.5814963682  MEMB      78              0.0000000000
      9622        78  POPE      H5Y            11.1541362744       34.5700883513       12.8898838730  MEMB      78              0.0000000000
      9623        78  POPE      C36            12.3477043545       35.4662033853       11.4232343598  MEMB      78              0.0000000000
      9624        78  POPE      H6X            13.2086343362       34.7824349308       11.5831760446  MEMB      78              0.0000000000
      9625        78  POPE      H6Y            12.5067066543       36.4650822426       10.9635823387  MEMB      78              0.0000000000
      9626        78  POPE      C37            11.3963688891       34.7224708914       10.4401280901  MEMB      78              0.0000000000
      9627        78  POPE      H7X            10.6369625580       35.4250746860       10.0351948314  MEMB      78              0.0000000000
      9628        78  POPE      H7Y            10.8609983465       33.8859111009       10.9379904577  MEMB      78              0.0000000000
      9629        78  POPE      C38            12.1131516888       34.1256072959        9.2138989460  MEMB      78              0.0000000000
      9630        78  POPE      H8X            11.3501037492       33.6033205943        8.5980293826  MEMB      78              0.0000000000
      9631        78  POPE      H8Y            12.8970774590       33.4110205566        9.5442729735  MEMB      78              0.0000000000
      9632        78  POPE      C39            12.7828233184       35.2178057885        8.3202047513  MEMB      78              0.0000000000
      9633        78  POPE      H9X            13.6151646800       35.5989288932        8.9497072669  MEMB      78              0.0000000000
      9634        78  POPE      H9Y            11.9717087961       35.9720955559        8.2338262929  MEMB      78              0.0000000000
      9635        78  POPE      C310           13.4795102435       34.7320557087        7.0650420115  MEMB      78              0.0000000000
      9636        78  POPE      H10X           14.2722964656       33.9665390152        7.2057370908  MEMB      78              0.0000000000
      9637        78  POPE      H10Y           13.7856195079       35.6208794893        6.4729179716  MEMB      78              0.0000000000
      9638        78  POPE      C311           12.5295104438       33.8878786215        6.2202298539  MEMB      78              0.0000000000
      9639        78  POPE      H11X           11.5136559039       34.3313277794        6.1446428479  MEMB      78              0.0000000000
      9640        78  POPE      H11Y           12.3139888153       32.8662748399        6.5999633831  MEMB      78              0.0000000000
      9641        78  POPE      C312           13.2000315411       33.5054035831        4.8592886455  MEMB      78              0.0000000000
      9642        78  POPE      H12X           12.6892464210       32.5556987644        4.5919301487  MEMB      78              0.0000000000
      9643        78  POPE      H12Y           14.2672996297       33.2129302214        4.9578735790  MEMB      78              0.0000000000
      9644        78  POPE      C313           13.1553403805       34.5088467410        3.7281779215  MEMB      78              0.0000000000
      9645        78  POPE      H13X           13.6594508639       34.1262725326        2.8150352157  MEMB      78              0.0000000000
      9646        78  POPE      H13Y           13.7012046921       35.4382894381        3.9974165189  MEMB      78              0.0000000000
      9647        78  POPE      C314           11.7735431066       35.1166556773        3.3207436981  MEMB      78              0.0000000000
      9648        78  POPE      H14X           11.9781504096       35.8228769347        2.4878522038  MEMB      78              0.0000000000
      9649        78  POPE      H14Y           11.2134161814       35.5045069885        4.1983259610  MEMB      78              0.0000000000
      9650        78  POPE      C315           10.8342812061       34.0353070390        2.6699671644  MEMB      78              0.0000000000
      9651        78  POPE      H15X           10.4376170303       33.4399329493        3.5199723224  MEMB      78              0.0000000000
      9652        78  POPE      H15Y           11.3439251607       33.2182024484        2.1159602411  MEMB      78              0.0000000000
      9653        78  POPE      C316            9.7026457930       34.7359696951        1.8904208980  MEMB      78              0.0000000000
      9654        78  POPE      H16X           10.2130345245       35.2383053064        1.0410194834  MEMB      78              0.0000000000
      9655        78  POPE      H16Y            9.1130868766       35.4677514365        2.4830731719  MEMB      78              0.0000000000
      9656        78  POPE      H16Z            8.9160406100       34.0101462979        1.5925050134  MEMB      78              0.0000000000
      9657        79  QMPE      N             -18.0059224947       34.5505154183       22.1914496071  MEMB      79              0.0000000000
      9658        79  QMPE      HN1           -18.9656823912       34.1910197778       22.3681521443  MEMB      79              0.0000000000
      9659        79  QMPE      HN2           -17.4733688541       33.7865591064       21.7284622389  MEMB      79              0.0000000000
      9660        79  QMPE      HN3           -17.5556659799       34.8779439164       23.0698915013  MEMB      79              0.0000000000
      9661        79  QMPE      C12           -18.1274769145       35.7762694857       21.3421453435  MEMB      79              0.0000000000
      9662        79  QMPE      H12A          -17.2141498377       36.4074684814       21.3838901385  MEMB      79              0.0000000000
      9663        79  QMPE      H12B          -18.9679452277       36.3245126161       21.8189718044  MEMB      79              0.0000000000
      9664        79  QMPE      C11           -18.5693662662       35.6010089087       19.9522611261  MEMB      79              0.0000000000
      9665        79  QMPE      H11A          -18.8825531633       36.5829566664       19.5375157017  MEMB      79              0.0000000000
      9666        79  QMPE      H11B          -19.4658906454       34.9451480272       19.9725463257  MEMB      79              0.0000000000
      9667        79  QMPE      P             -17.3435171907       35.5477894273       17.6208931507  MEMB      79              0.0000000000
      9668        79  QMPE      O13           -18.1467846899       36.7368103129       17.3547234278  MEMB      79              0.0000000000
      9669        79  QMPE      O14           -17.5624885623       34.4791194574       16.6973175272  MEMB      79              0.0000000000
      9670        79  QMPE      O11           -15.7553678902       35.8729173859       17.7428744946  MEMB      79              0.0000000000
      9671        79  QMPE      O12           -17.6256591928       34.9996008201       19.0983353210  MEMB      79              0.0000000000
      9672        79  QMPE      C1            -15.3670073835       37.0249787994       18.5015413777  MEMB      79              0.0000000000
      9673        79  QMPE      HA            -14.8323113932       36.7124151534       19.4238890802  MEMB      79              0.0000000000
      9674        79  QMPE      HB            -16.2574664421       37.5763859857       18.8721538521  MEMB      79              0.0000000000
      9675        79  QMPE      C2            -14.6579994633       38.1504002201       17.5871551251  MEMB      79              0.0000000000
      9676        79  QMPE      HS            -14.1255264776       38.9432655659       18.1547447410  MEMB      79              0.0000000000
      9677        79  QMPE      O21           -15.6323056172       38.6653170931       16.6720824898  MEMB      79              0.0000000000
      9678        79  QMPE      C21           -16.2972095558       39.7072169023       17.1476555763  MEMB      79              0.0000000000
      9679        79  QMPE      O22           -16.1970669821       40.2419245532       18.2355996566  MEMB      79              0.0000000000
      9680        79  QMPE      C22           -17.3365836368       40.0769811975       16.0374889390  MEMB      79              0.0000000000
      9681        79  QMPE      H2R           -18.2767699544       40.2744578809       16.5954975810  MEMB      79              0.0000000000
      9682        79  QMPE      H2S           -17.4686844383       39.2094743139       15.3560916438  MEMB      79              0.0000000000
      9683        79  QMPE      C3            -13.5289113990       37.5534184733       16.7247979849  MEMB      79              0.0000000000
      9684        79  QMPE      HX            -12.8850464395       37.0147757508       17.4525500782  MEMB      79              0.0000000000
      9685        79  QMPE      HY            -12.9428226964       38.3607733227       16.2359225725  MEMB      79              0.0000000000
      9686        79  QMPE      O31           -14.0200772537       36.6586543084       15.7406367954  MEMB      79              0.0000000000
      9687        79  QMPE      C31           -13.9970934329       36.9950041973       14.4247412201  MEMB      79              0.0000000000
      9688        79  QMPE      O32           -13.5434004534       38.0305419851       14.0094382138  MEMB      79              0.0000000000
      9689        79  QMPE      C32           -14.6443973407       35.8148317223       13.6236090177  MEMB      79              0.0000000000
      9690        79  QMPE      H2X           -13.8796398361       35.0113619457       13.6860848877  MEMB      79              0.0000000000
      9691        79  QMPE      H2Y           -15.6585665608       35.5997781864       14.0230257745  MEMB      79              0.0000000000
      9692        79  QMPE      C23           -17.0839906998       41.4534614563       15.3801861204  MEMB      79              0.0000000000
      9693        79  QMPE      H3R           -16.5742367552       42.1711090946       16.0580160549  MEMB      79              0.0000000000
      9694        79  QMPE      H3S           -18.0540383700       41.7819902565       14.9496084405  MEMB      79              0.0000000000
      9695        79  QMPE      C24           -16.2931700523       41.2189184749       14.0519734219  MEMB      79              0.0000000000
      9696        79  QMPE      H4R           -15.4300686384       40.6137510097       14.4028996722  MEMB      79              0.0000000000
      9697        79  QMPE      H4S           -15.8976732364       42.2474087357       13.9101613396  MEMB      79              0.0000000000
      9698        79  QMPE      C25           -16.9877674868       40.7255125637       12.8068400123  MEMB      79              0.0000000000
      9699        79  QMPE      H5R           -17.8364096701       41.4219702816       12.6363290706  MEMB      79              0.0000000000
      9700        79  QMPE      H5S           -17.4229021947       39.7172043017       12.9750473700  MEMB      79              0.0000000000
      9701        79  QMPE      C26           -15.9813884468       40.5836964388       11.5519956810  MEMB      79              0.0000000000
      9702        79  QMPE      H6R           -15.1080287819       40.0595262449       11.9956274124  MEMB      79              0.0000000000
      9703        79  QMPE      H6S           -15.5717262224       41.5468861609       11.1794866382  MEMB      79              0.0000000000
      9704        79  QMPE      C27           -16.5420601441       39.6959018428       10.5052471213  MEMB      79              0.0000000000
      9705        79  QMPE      H7R           -16.8954860390       38.7633761723       10.9949479934  MEMB      79              0.0000000000
      9706        79  QMPE      H7S           -15.8156425233       39.2954007297        9.7661684749  MEMB      79              0.0000000000
      9707        79  QMPE      C28           -17.6936141210       40.2648037745        9.6869826285  MEMB      79              0.0000000000
      9708        79  QMPE      H8R           -18.5389341295       40.3916829489       10.3966703663  MEMB      79              0.0000000000
      9709        79  QMPE      H8S           -18.0237356383       39.5682921049        8.8868498138  MEMB      79              0.0000000000
      9710        79  QMPE      C29           -17.4651712740       41.6817767996        9.0763925731  MEMB      79              0.0000000000
      9711        79  QMPE      H9R           -17.2199362998       42.5160880422        9.7678445609  MEMB      79              0.0000000000
      9712        79  QMPE      C217          -18.2250844992       41.9236909894        7.6560092889  MEMB      79              0.0000000000
      9713        79  QMPE      H17R          -18.6656877363       41.0649531354        7.1647592710  MEMB      79              0.0000000000
      9714        79  QMPE      H17S          -18.5463760165       42.9478529217        7.5119510498  MEMB      79              0.0000000000
      9715        79  QMPE      C210          -16.7013256100       41.8441682358        7.7357348887  MEMB      79              0.0000000000
      9716        79  QMPE      H10R          -16.1611118094       42.8001369598        7.5665795678  MEMB      79              0.0000000000
      9717        79  QMPE      C211          -16.1201114813       40.6288053142        6.9978473013  MEMB      79              0.0000000000
      9718        79  QMPE      H11R          -15.2079744122       40.2895267824        7.5337738823  MEMB      79              0.0000000000
      9719        79  QMPE      H11S          -16.8916644293       39.8361685590        6.8941454723  MEMB      79              0.0000000000
      9720        79  QMPE      C212          -15.6424648698       40.8080778784        5.4761070370  MEMB      79              0.0000000000
      9721        79  QMPE      H12R          -15.1642421111       39.9230429721        5.0045804330  MEMB      79              0.0000000000
      9722        79  QMPE      H12S          -14.8997087710       41.6339015208        5.4506164504  MEMB      79              0.0000000000
      9723        79  QMPE      C213          -16.8560869533       41.2161402128        4.5737313972  MEMB      79              0.0000000000
      9724        79  QMPE      H13R          -17.4006571631       42.0300095652        5.0984988594  MEMB      79              0.0000000000
      9725        79  QMPE      H13S          -17.3914655100       40.2472072387        4.4796062494  MEMB      79              0.0000000000
      9726        79  QMPE      C214          -16.6410313858       41.8672027531        3.1666480884  MEMB      79              0.0000000000
      9727        79  QMPE      H14R          -15.8764282140       41.3971222703        2.5118754035  MEMB      79              0.0000000000
      9728        79  QMPE      H14S          -16.3819661487       42.9395436424        3.2981448181  MEMB      79              0.0000000000
      9729        79  QMPE      C215          -17.9314984133       41.8220942510        2.3247360436  MEMB      79              0.0000000000
      9730        79  QMPE      H15R          -18.8450282886       41.8268645839        2.9570034274  MEMB      79              0.0000000000
      9731        79  QMPE      H15S          -18.0611794909       40.8325502199        1.8365700047  MEMB      79              0.0000000000
      9732        79  QMPE      C216          -18.1047406564       42.7954962564        1.1033735614  MEMB      79              0.0000000000
      9733        79  QMPE      H16R          -19.1368675936       42.7397080552        0.6960386143  MEMB      79              0.0000000000
      9734        79  QMPE      H16S          -17.4495674605       42.4357066197        0.2814129271  MEMB      79              0.0000000000
      9735        79  QMPE      H16T          -17.7675492983       43.8245021874        1.3519094403  MEMB      79              0.0000000000
      9736        79  QMPE      C33           -14.9057167102       36.2190481005       12.2024012359  MEMB      79              0.0000000000
      9737        79  QMPE      H3X           -14.0536075762       35.8862894131       11.5719227811  MEMB      79              0.0000000000
      9738        79  QMPE      H3Y           -15.0503633919       37.3144916774       12.0866353705  MEMB      79              0.0000000000
      9739        79  QMPE      C34           -16.2400420880       35.5561524794       11.6922282604  MEMB      79              0.0000000000
      9740        79  QMPE      H4X           -17.1091203764       35.9126308518       12.2854797887  MEMB      79              0.0000000000
      9741        79  QMPE      H4Y           -16.0806952428       34.4603416281       11.7823842347  MEMB      79              0.0000000000
      9742        79  QMPE      C35           -16.5641998346       35.8924334253       10.1892824991  MEMB      79              0.0000000000
      9743        79  QMPE      H5X           -17.0039363610       36.9048966329       10.0633011675  MEMB      79              0.0000000000
      9744        79  QMPE      H5Y           -17.3523924997       35.1608477194        9.9102557564  MEMB      79              0.0000000000
      9745        79  QMPE      C36           -15.3477305537       35.7695143296        9.2120679803  MEMB      79              0.0000000000
      9746        79  QMPE      H6X           -14.8481526410       34.7781084817        9.2551695666  MEMB      79              0.0000000000
      9747        79  QMPE      H6Y           -14.5856841775       36.5541069815        9.4070561513  MEMB      79              0.0000000000
      9748        79  QMPE      C37           -15.6442201170       36.0735993903        7.7372073990  MEMB      79              0.0000000000
      9749        79  QMPE      H7X           -15.7754915901       37.1699424801        7.6142425227  MEMB      79              0.0000000000
      9750        79  QMPE      H7Y           -14.6689903234       36.0242662737        7.2072885739  MEMB      79              0.0000000000
      9751        79  QMPE      C38           -16.8075219493       35.4189929562        7.0099784314  MEMB      79              0.0000000000
      9752        79  QMPE      H8X           -16.6058647729       34.3359282335        6.8663614353  MEMB      79              0.0000000000
      9753        79  QMPE      H8Y           -17.6862941038       35.6064349980        7.6633892859  MEMB      79              0.0000000000
      9754        79  QMPE      C39           -17.0553794166       35.9321626901        5.6048646666  MEMB      79              0.0000000000
      9755        79  QMPE      H9X           -17.5042643031       35.0798620545        5.0513241281  MEMB      79              0.0000000000
      9756        79  QMPE      H9Y           -16.0699810865       36.0380671423        5.1027734236  MEMB      79              0.0000000000
      9757        79  QMPE      C310          -17.8532659596       37.2040150172        5.4799020432  MEMB      79              0.0000000000
      9758        79  QMPE      H10X          -17.5104895825       37.7251410427        4.5605248319  MEMB      79              0.0000000000
      9759        79  QMPE      H10Y          -17.7171480012       37.7961112807        6.4100709330  MEMB      79              0.0000000000
      9760        79  QMPE      C311          -19.3665063264       36.9752014987        5.1368246325  MEMB      79              0.0000000000
      9761        79  QMPE      H11X          -19.9484334361       37.9187019392        5.2109107446  MEMB      79              0.0000000000
      9762        79  QMPE      H11Y          -19.8444181489       36.1562360518        5.7158041281  MEMB      79              0.0000000000
      9763        79  QMPE      C312          -19.6735917159       36.6910629103        3.6774807464  MEMB      79              0.0000000000
      9764        79  QMPE      H12X          -19.3334695799       35.7085121515        3.2860320272  MEMB      79              0.0000000000
      9765        79  QMPE      H12Y          -19.1485550086       37.4298066565        3.0348957860  MEMB      79              0.0000000000
      9766        79  QMPE      C313          -21.1444814212       36.8530605353        3.2942326186  MEMB      79              0.0000000000
      9767        79  QMPE      H13X          -21.6940870868       35.9140530376        3.5189989980  MEMB      79              0.0000000000
      9768        79  QMPE      H13Y          -21.6704303588       37.6221800143        3.8993390935  MEMB      79              0.0000000000
      9769        79  QMPE      C314          -21.4853787349       37.1950524338        1.8352733471  MEMB      79              0.0000000000
      9770        79  QMPE      H14X          -21.2656062624       38.2728866274        1.6794068634  MEMB      79              0.0000000000
      9771        79  QMPE      H14Y          -22.5919449002       37.1125074739        1.7803276580  MEMB      79              0.0000000000
      9772        79  QMPE      C315          -20.7132872727       36.3707188744        0.7894217918  MEMB      79              0.0000000000
      9773        79  QMPE      H15X          -21.1571274614       36.6163794183       -0.1990006603  MEMB      79              0.0000000000
      9774        79  QMPE      H15Y          -19.6172800301       36.5084285083        0.9082695722  MEMB      79              0.0000000000
      9775        79  QMPE      H15Z          -20.9357900479       35.3197462772        1.0727425228  MEMB      79              0.0000000000
      9776        80  PMPE      N              36.2722883320      -17.3319445522       22.1476977196  MEMB      80              0.0000000000
      9777        80  PMPE      HN1            36.4596327996      -16.6184685528       22.8808100695  MEMB      80              0.0000000000
      9778        80  PMPE      HN2            35.6067171562      -16.8154101511       21.5379377716  MEMB      80              0.0000000000
      9779        80  PMPE      HN3            35.8878976798      -18.2009584925       22.5703780014  MEMB      80              0.0000000000
      9780        80  PMPE      C12            37.5219314632      -17.8224077512       21.4314281722  MEMB      80              0.0000000000
      9781        80  PMPE      H12A           38.0890130551      -18.5315881755       22.0715863296  MEMB      80              0.0000000000
      9782        80  PMPE      H12B           38.0844394430      -16.8973950757       21.1819136701  MEMB      80              0.0000000000
      9783        80  PMPE      C11            37.1836725131      -18.5067798689       20.0505620435  MEMB      80              0.0000000000
      9784        80  PMPE      H11A           36.4830371679      -19.3341022295       20.2933971331  MEMB      80              0.0000000000
      9785        80  PMPE      H11B           38.1698711104      -18.8128439784       19.6406130223  MEMB      80              0.0000000000
      9786        80  PMPE      P              36.4557212861      -17.7516273345       17.6331034276  MEMB      80              0.0000000000
      9787        80  PMPE      O13            36.6551344105      -16.4586839561       16.9312299335  MEMB      80              0.0000000000
      9788        80  PMPE      O14            35.1683545633      -18.4402795407       17.3706421587  MEMB      80              0.0000000000
      9789        80  PMPE      O11            37.6512778644      -18.6559729591       17.2604549472  MEMB      80              0.0000000000
      9790        80  PMPE      O12            36.5460310558      -17.5295250540       19.1748815956  MEMB      80              0.0000000000
      9791        80  PMPE      C1             37.3900175779      -19.7083303849       16.2588510947  MEMB      80              0.0000000000
      9792        80  PMPE      HA             37.1505488461      -19.2131714398       15.2935567023  MEMB      80              0.0000000000
      9793        80  PMPE      HB             36.5074602110      -20.3341174704       16.5114454825  MEMB      80              0.0000000000
      9794        80  PMPE      C2             38.6378278706      -20.6178334013       16.2185527652  MEMB      80              0.0000000000
      9795        80  PMPE      HS             39.2317665960      -20.5271423045       17.1530757004  MEMB      80              0.0000000000
      9796        80  PMPE      O21            39.3886628559      -20.2040652675       15.0876185819  MEMB      80              0.0000000000
      9797        80  PMPE      C21            40.6872166083      -20.0513964843       15.1767492035  MEMB      80              0.0000000000
      9798        80  PMPE      O22            41.3717413225      -20.5087642890       16.0680605890  MEMB      80              0.0000000000
      9799        80  PMPE      C22            41.1458952568      -19.3025590492       13.9193373821  MEMB      80              0.0000000000
      9800        80  PMPE      H2R            42.1422500127      -18.8498633561       14.1108172038  MEMB      80              0.0000000000
      9801        80  PMPE      H2S            40.4319736828      -18.4541945543       13.8492301983  MEMB      80              0.0000000000
      9802        80  PMPE      C3             38.4481202201      -22.1139514819       16.0298783852  MEMB      80              0.0000000000
      9803        80  PMPE      HX             37.8462913406      -22.5058166360       16.8775603401  MEMB      80              0.0000000000
      9804        80  PMPE      HY             39.4214076819      -22.6472146524       15.9782726709  MEMB      80              0.0000000000
      9805        80  PMPE      O31            37.6745834067      -22.2534204886       14.8597336247  MEMB      80              0.0000000000
      9806        80  PMPE      C31            38.3844988389      -22.6572372248       13.7363408562  MEMB      80              0.0000000000
      9807        80  PMPE      O32            39.5522447065      -23.1630032580       13.7670959839  MEMB      80              0.0000000000
      9808        80  PMPE      C32            37.5693947491      -22.1857168449       12.4496409646  MEMB      80              0.0000000000
      9809        80  PMPE      H2X            36.7754766207      -22.9566041283       12.3509109835  MEMB      80              0.0000000000
      9810        80  PMPE      H2Y            38.2115507824      -22.3671820670       11.5613693495  MEMB      80              0.0000000000
      9811        80  PMPE      C23            41.2650522776      -20.2050260143       12.6657817598  MEMB      80              0.0000000000
      9812        80  PMPE      H3R            40.3510860041      -20.8245627367       12.5426515798  MEMB      80              0.0000000000
      9813        80  PMPE      H3S            42.0766001157      -20.9637400243       12.6578025604  MEMB      80              0.0000000000
      9814        80  PMPE      C24            41.3576434872      -19.4653835256       11.3409577340  MEMB      80              0.0000000000
      9815        80  PMPE      H4R            42.3603216494      -18.9869474769       11.3484931991  MEMB      80              0.0000000000
      9816        80  PMPE      H4S            40.5253814696      -18.7357287181       11.2447037127  MEMB      80              0.0000000000
      9817        80  PMPE      C25            41.2839639108      -20.3720100952       10.0951402839  MEMB      80              0.0000000000
      9818        80  PMPE      H5R            40.3447585182      -20.9617556908       10.1615827040  MEMB      80              0.0000000000
      9819        80  PMPE      H5S            42.1670190530      -21.0431615724       10.0311879962  MEMB      80              0.0000000000
      9820        80  PMPE      C26            41.2695858935      -19.5553181423        8.7969435863  MEMB      80              0.0000000000
      9821        80  PMPE      H6R            42.0272508782      -18.7430898325        8.7734861069  MEMB      80              0.0000000000
      9822        80  PMPE      H6S            40.3281125145      -18.9655285968        8.8068079308  MEMB      80              0.0000000000
      9823        80  PMPE      C27            41.3613776343      -20.3837493964        7.5454189992  MEMB      80              0.0000000000
      9824        80  PMPE      H7R            40.4623884081      -21.0167986655        7.7047556223  MEMB      80              0.0000000000
      9825        80  PMPE      H7S            42.2302923300      -21.0716336734        7.6236721903  MEMB      80              0.0000000000
      9826        80  PMPE      C28            41.3757470078      -19.5339428853        6.2474580076  MEMB      80              0.0000000000
      9827        80  PMPE      H8R            42.0486549405      -18.6687527366        6.4290123631  MEMB      80              0.0000000000
      9828        80  PMPE      H8S            40.3774596553      -19.0464823852        6.2362425808  MEMB      80              0.0000000000
      9829        80  PMPE      C29            41.9493835254      -20.2669240749        5.0051662591  MEMB      80              0.0000000000
      9830        80  PMPE      H9R            43.0245566125      -20.5397042791        4.9425973571  MEMB      80              0.0000000000
      9831        80  PMPE      C217           41.2079724303      -20.1317184032        3.6452111757  MEMB      80              0.0000000000
      9832        80  PMPE      H17R           41.8970857179      -19.9092291589        2.8399098580  MEMB      80              0.0000000000
      9833        80  PMPE      H17S           40.4676916747      -19.4164049583        3.9816629813  MEMB      80              0.0000000000
      9834        80  PMPE      C210           41.1392325028      -21.4328324732        4.4101990362  MEMB      80              0.0000000000
      9835        80  PMPE      H10R           41.6094971213      -22.2131105222        3.7743228101  MEMB      80              0.0000000000
      9836        80  PMPE      C211           39.8435323937      -21.8691453774        5.1556807067  MEMB      80              0.0000000000
      9837        80  PMPE      H11R           39.3564790239      -20.9882034096        5.6258317416  MEMB      80              0.0000000000
      9838        80  PMPE      H11S           39.9894246634      -22.6720714757        5.9095683806  MEMB      80              0.0000000000
      9839        80  PMPE      C212           38.8433991526      -22.5249709939        4.1319196882  MEMB      80              0.0000000000
      9840        80  PMPE      H12R           37.9954128050      -22.9416984373        4.7163665366  MEMB      80              0.0000000000
      9841        80  PMPE      H12S           39.5295538775      -23.2428615741        3.6337767579  MEMB      80              0.0000000000
      9842        80  PMPE      C213           38.3251251646      -21.6442213367        2.9946228672  MEMB      80              0.0000000000
      9843        80  PMPE      H13R           38.0306481785      -22.2470219546        2.1090520915  MEMB      80              0.0000000000
      9844        80  PMPE      H13S           39.1126871128      -20.9551575338        2.6214497664  MEMB      80              0.0000000000
      9845        80  PMPE      C214           37.1585621182      -20.7008341134        3.4183433625  MEMB      80              0.0000000000
      9846        80  PMPE      H14R           37.5549288340      -20.1336832637        4.2875701139  MEMB      80              0.0000000000
      9847        80  PMPE      H14S           36.3503555520      -21.3770890760        3.7701986581  MEMB      80              0.0000000000
      9848        80  PMPE      C215           36.6818239643      -19.6120724721        2.4995962824  MEMB      80              0.0000000000
      9849        80  PMPE      H15R           35.7704015757      -19.2042946606        2.9867805127  MEMB      80              0.0000000000
      9850        80  PMPE      H15S           36.5055181755      -20.0926358461        1.5135455524  MEMB      80              0.0000000000
      9851        80  PMPE      C216           37.8262185223      -18.6216157287        2.2677542993  MEMB      80              0.0000000000
      9852        80  PMPE      H16R           38.6887429474      -19.0284581034        1.6977965809  MEMB      80              0.0000000000
      9853        80  PMPE      H16S           37.3193162060      -17.7937847635        1.7273213332  MEMB      80              0.0000000000
      9854        80  PMPE      H16T           38.1880677520      -18.2779716664        3.2603741648  MEMB      80              0.0000000000
      9855        80  PMPE      C33            37.1074602550      -20.7413485730       12.5385088368  MEMB      80              0.0000000000
      9856        80  PMPE      H3X            37.8744947102      -19.9383913992       12.5737058315  MEMB      80              0.0000000000
      9857        80  PMPE      H3Y            36.5507441187      -20.6361203445       13.4941840561  MEMB      80              0.0000000000
      9858        80  PMPE      C34            36.1474977930      -20.3775965408       11.4107933610  MEMB      80              0.0000000000
      9859        80  PMPE      H4X            35.5411939686      -19.4540494859       11.5281715348  MEMB      80              0.0000000000
      9860        80  PMPE      H4Y            35.3708237784      -21.1462595258       11.2101550076  MEMB      80              0.0000000000
      9861        80  PMPE      C35            36.8905865338      -20.1022532561       10.1460985727  MEMB      80              0.0000000000
      9862        80  PMPE      H5X            37.8185018205      -20.7007814276       10.0233848757  MEMB      80              0.0000000000
      9863        80  PMPE      H5Y            37.1499570893      -19.0364501279        9.9697141631  MEMB      80              0.0000000000
      9864        80  PMPE      C36            36.0109465409      -20.5467284891        8.9007521938  MEMB      80              0.0000000000
      9865        80  PMPE      H6X            35.2109692973      -19.7757855503        8.8987030290  MEMB      80              0.0000000000
      9866        80  PMPE      H6Y            35.7898382935      -21.6297894105        9.0121587637  MEMB      80              0.0000000000
      9867        80  PMPE      C37            36.7678343784      -20.3882647210        7.4901505799  MEMB      80              0.0000000000
      9868        80  PMPE      H7X            35.9028350252      -20.4830012796        6.7994103915  MEMB      80              0.0000000000
      9869        80  PMPE      H7Y            37.4899408286      -21.2295283487        7.4183264825  MEMB      80              0.0000000000
      9870        80  PMPE      C38            37.4600196979      -19.0227133262        7.1664521125  MEMB      80              0.0000000000
      9871        80  PMPE      H8X            37.9986732314      -19.1530191064        6.2035427012  MEMB      80              0.0000000000
      9872        80  PMPE      H8Y            38.1028673995      -18.9529002389        8.0698867589  MEMB      80              0.0000000000
      9873        80  PMPE      C39            36.6035762342      -17.7647431038        6.9978398816  MEMB      80              0.0000000000
      9874        80  PMPE      H9X            35.9277400001      -17.6950138110        7.8768759084  MEMB      80              0.0000000000
      9875        80  PMPE      H9Y            35.9941419580      -18.0022097735        6.0997752889  MEMB      80              0.0000000000
      9876        80  PMPE      C310           37.3599640115      -16.4536969007        6.7624243907  MEMB      80              0.0000000000
      9877        80  PMPE      H10X           38.1008273225      -16.3691305195        7.5860090881  MEMB      80              0.0000000000
      9878        80  PMPE      H10Y           36.6796698312      -15.5877667935        6.9096863896  MEMB      80              0.0000000000
      9879        80  PMPE      C311           37.9296918127      -16.3967661786        5.3458416650  MEMB      80              0.0000000000
      9880        80  PMPE      H11X           37.0876865035      -16.4368312614        4.6221402626  MEMB      80              0.0000000000
      9881        80  PMPE      H11Y           38.6030180520      -17.2615442791        5.1638757339  MEMB      80              0.0000000000
      9882        80  PMPE      C312           38.5834703735      -15.0849434693        5.0526643547  MEMB      80              0.0000000000
      9883        80  PMPE      H12X           38.2806981973      -14.2720101559        5.7467748976  MEMB      80              0.0000000000
      9884        80  PMPE      H12Y           38.3976132335      -14.7455159166        4.0112389843  MEMB      80              0.0000000000
      9885        80  PMPE      C313           40.1646494614      -15.1236825783        5.0613550231  MEMB      80              0.0000000000
      9886        80  PMPE      H13X           40.4614431057      -15.7340446316        5.9409531239  MEMB      80              0.0000000000
      9887        80  PMPE      H13Y           40.5120435239      -14.0727937309        5.1576407442  MEMB      80              0.0000000000
      9888        80  PMPE      C314           40.7721667351      -15.8022272675        3.8139024476  MEMB      80              0.0000000000
      9889        80  PMPE      H14X           40.5372864052      -15.1369223923        2.9556931577  MEMB      80              0.0000000000
      9890        80  PMPE      H14Y           40.2329263449      -16.7664464171        3.6963349104  MEMB      80              0.0000000000
      9891        80  PMPE      C315           42.2954830455      -16.0668644351        3.8851482011  MEMB      80              0.0000000000
      9892        80  PMPE      H15X           42.4524770494      -16.6827482208        4.7963897437  MEMB      80              0.0000000000
      9893        80  PMPE      H15Y           42.7752038450      -15.1001053362        4.1489020787  MEMB      80              0.0000000000
      9894        80  PMPE      C316           43.0417388261      -16.5457268541        2.6529798917  MEMB      80              0.0000000000
      9895        80  PMPE      H16X           42.6755496128      -17.5752315051        2.4521157680  MEMB      80              0.0000000000
      9896        80  PMPE      H16Y           44.1519030334      -16.5710298404        2.6878529130  MEMB      80              0.0000000000
      9897        80  PMPE      H16Z           42.6921714897      -15.9135222965        1.8089187451  MEMB      80              0.0000000000
      9898        81  QMPE      N              32.2822692368       23.8177664996       21.4394595570  MEMB      81              0.0000000000
      9899        81  QMPE      HN1            32.2401103932       22.8826668375       21.8926827150  MEMB      81              0.0000000000
      9900        81  QMPE      HN2            32.6004345647       24.5220842161       22.1353816220  MEMB      81              0.0000000000
      9901        81  QMPE      HN3            31.3742971261       24.1391435353       21.0471542153  MEMB      81              0.0000000000
      9902        81  QMPE      C12            33.3152184103       23.7678532511       20.3763184980  MEMB      81              0.0000000000
      9903        81  QMPE      H12A           33.9402994923       22.8805384855       20.6135254793  MEMB      81              0.0000000000
      9904        81  QMPE      H12B           33.9556357911       24.6666342895       20.5043005492  MEMB      81              0.0000000000
      9905        81  QMPE      C11            32.6808315048       23.6135552194       19.0494764359  MEMB      81              0.0000000000
      9906        81  QMPE      H11A           32.1125894622       22.6592175543       19.0751921052  MEMB      81              0.0000000000
      9907        81  QMPE      H11B           33.4636572604       23.4895072428       18.2709412478  MEMB      81              0.0000000000
      9908        81  QMPE      P              32.0511190685       26.0297319662       18.2977103958  MEMB      81              0.0000000000
      9909        81  QMPE      O13            33.5166026774       26.2927108548       18.4468853993  MEMB      81              0.0000000000
      9910        81  QMPE      O14            31.0450724787       26.9861130281       18.8301953587  MEMB      81              0.0000000000
      9911        81  QMPE      O11            31.7794135711       25.8680046636       16.7368621095  MEMB      81              0.0000000000
      9912        81  QMPE      O12            31.6640562849       24.6030477939       18.8230922426  MEMB      81              0.0000000000
      9913        81  QMPE      C1             32.8630868528       25.5403104964       15.8638878498  MEMB      81              0.0000000000
      9914        81  QMPE      HA             32.3896533887       25.1353956260       14.9439825352  MEMB      81              0.0000000000
      9915        81  QMPE      HB             33.5419846865       24.8227440291       16.3723334744  MEMB      81              0.0000000000
      9916        81  QMPE      C2             33.6915693202       26.7025899706       15.4001536298  MEMB      81              0.0000000000
      9917        81  QMPE      HS             34.5250821434       26.9034061515       16.1067301878  MEMB      81              0.0000000000
      9918        81  QMPE      O21            32.7951895816       27.8417466636       15.2874689620  MEMB      81              0.0000000000
      9919        81  QMPE      C21            33.3902383387       28.9835329392       15.1329793236  MEMB      81              0.0000000000
      9920        81  QMPE      O22            34.5974211133       29.1970672528       15.2981228289  MEMB      81              0.0000000000
      9921        81  QMPE      C22            32.3788244924       30.0188240170       14.7868106016  MEMB      81              0.0000000000
      9922        81  QMPE      H2R            32.3833524200       30.8961549832       15.4684197216  MEMB      81              0.0000000000
      9923        81  QMPE      H2S            31.3672352881       29.5621279010       14.7374465230  MEMB      81              0.0000000000
      9924        81  QMPE      C3             34.3271158324       26.4000796417       13.9572563305  MEMB      81              0.0000000000
      9925        81  QMPE      HX             34.5612150390       25.3154203825       14.0123269521  MEMB      81              0.0000000000
      9926        81  QMPE      HY             35.2080129030       27.0740579092       13.8932670121  MEMB      81              0.0000000000
      9927        81  QMPE      O31            33.4803422439       26.7551248528       12.9205593976  MEMB      81              0.0000000000
      9928        81  QMPE      C31            33.9275947559       26.5237724322       11.7049597637  MEMB      81              0.0000000000
      9929        81  QMPE      O32            35.0835769585       26.5854111155       11.3205128889  MEMB      81              0.0000000000
      9930        81  QMPE      C32            32.7787271457       26.0605777497       10.8052336113  MEMB      81              0.0000000000
      9931        81  QMPE      H2X            32.1386517560       25.2969418658       11.2966442921  MEMB      81              0.0000000000
      9932        81  QMPE      H2Y            32.0562088299       26.8611445001       10.5380605462  MEMB      81              0.0000000000
      9933        81  QMPE      C23            32.6449694542       30.6757001776       13.3783001437  MEMB      81              0.0000000000
      9934        81  QMPE      H3R            33.6793831386       30.4573230490       13.0368020083  MEMB      81              0.0000000000
      9935        81  QMPE      H3S            32.6482813581       31.7768905100       13.5255747525  MEMB      81              0.0000000000
      9936        81  QMPE      C24            31.6676688699       30.3951575204       12.2073982084  MEMB      81              0.0000000000
      9937        81  QMPE      H4R            30.7399221318       30.9112011366       12.5349742177  MEMB      81              0.0000000000
      9938        81  QMPE      H4S            31.5146130914       29.2947826111       12.1990532054  MEMB      81              0.0000000000
      9939        81  QMPE      C25            31.9009190370       30.7853980044       10.8038357670  MEMB      81              0.0000000000
      9940        81  QMPE      H5R            32.2297757639       31.8465148168       10.8181496590  MEMB      81              0.0000000000
      9941        81  QMPE      H5S            30.9163381789       30.8262712733       10.2907554536  MEMB      81              0.0000000000
      9942        81  QMPE      C26            32.9618197947       29.9947253304       10.0604744695  MEMB      81              0.0000000000
      9943        81  QMPE      H6R            32.8563337253       28.8970968657        9.9248073281  MEMB      81              0.0000000000
      9944        81  QMPE      H6S            33.9473854635       30.0279539597       10.5722143461  MEMB      81              0.0000000000
      9945        81  QMPE      C27            33.2952539290       30.4328422179        8.6136385278  MEMB      81              0.0000000000
      9946        81  QMPE      H7R            33.8336524945       31.4024548107        8.6792022606  MEMB      81              0.0000000000
      9947        81  QMPE      H7S            32.3416506643       30.8071716417        8.1837089055  MEMB      81              0.0000000000
      9948        81  QMPE      C28            33.9958460059       29.4216386008        7.7163144281  MEMB      81              0.0000000000
      9949        81  QMPE      H8R            34.1150714411       29.7803445420        6.6715960753  MEMB      81              0.0000000000
      9950        81  QMPE      H8S            33.4763760316       28.4402060658        7.6807915627  MEMB      81              0.0000000000
      9951        81  QMPE      C29            35.4421245318       29.2489544673        8.2673140448  MEMB      81              0.0000000000
      9952        81  QMPE      H9R            35.5837335422       29.1616024156        9.3657847492  MEMB      81              0.0000000000
      9953        81  QMPE      C217           36.5514981973       30.0507803474        7.4717375612  MEMB      81              0.0000000000
      9954        81  QMPE      H17R           36.1318325337       30.6342762201        6.6616127597  MEMB      81              0.0000000000
      9955        81  QMPE      H17S           37.4597059863       30.3547676368        7.9773457124  MEMB      81              0.0000000000
      9956        81  QMPE      C210           36.5452315183       28.5197943557        7.5026062220  MEMB      81              0.0000000000
      9957        81  QMPE      H10R           37.3488207967       28.0805984205        8.1316310580  MEMB      81              0.0000000000
      9958        81  QMPE      C211           36.2331581453       27.8246235678        6.2073394702  MEMB      81              0.0000000000
      9959        81  QMPE      H11R           35.7782680443       28.5709723915        5.5215116098  MEMB      81              0.0000000000
      9960        81  QMPE      H11S           37.2352745883       27.5567730293        5.8094203124  MEMB      81              0.0000000000
      9961        81  QMPE      C212           35.3692112317       26.5421984115        6.3065275365  MEMB      81              0.0000000000
      9962        81  QMPE      H12R           34.3294084937       26.7290187506        6.6503722757  MEMB      81              0.0000000000
      9963        81  QMPE      H12S           35.8034944707       25.8270778423        7.0375009072  MEMB      81              0.0000000000
      9964        81  QMPE      C213           35.1950355158       25.8662706377        4.9665053409  MEMB      81              0.0000000000
      9965        81  QMPE      H13R           36.1976608038       25.6315880867        4.5493867534  MEMB      81              0.0000000000
      9966        81  QMPE      H13S           34.8531852153       26.5651325587        4.1733774314  MEMB      81              0.0000000000
      9967        81  QMPE      C214           34.3054883403       24.6374611685        5.1148573823  MEMB      81              0.0000000000
      9968        81  QMPE      H14R           33.3587414402       25.0159294641        5.5561662638  MEMB      81              0.0000000000
      9969        81  QMPE      H14S           34.8919660974       23.9920011121        5.8031498751  MEMB      81              0.0000000000
      9970        81  QMPE      C215           34.0803674866       23.8959097924        3.7985433410  MEMB      81              0.0000000000
      9971        81  QMPE      H15R           33.7509275516       24.5043907672        2.9293239440  MEMB      81              0.0000000000
      9972        81  QMPE      H15S           33.3614230805       23.0569581919        3.9151608468  MEMB      81              0.0000000000
      9973        81  QMPE      C216           35.4349837710       23.2378071713        3.2652995282  MEMB      81              0.0000000000
      9974        81  QMPE      H16R           35.1572301664       22.8116815018        2.2775800728  MEMB      81              0.0000000000
      9975        81  QMPE      H16S           35.9010967934       22.5253453556        3.9790632453  MEMB      81              0.0000000000
      9976        81  QMPE      H16T           36.1192546821       24.0853764804        3.0468498866  MEMB      81              0.0000000000
      9977        81  QMPE      C33            33.3656743289       25.4453567626        9.5289598883  MEMB      81              0.0000000000
      9978        81  QMPE      H3X            34.0721305542       24.5971412295        9.6545425081  MEMB      81              0.0000000000
      9979        81  QMPE      H3Y            33.9387037805       26.2493904347        9.0195602922  MEMB      81              0.0000000000
      9980        81  QMPE      C34            32.2747164165       24.9261168192        8.5459358719  MEMB      81              0.0000000000
      9981        81  QMPE      H4X            31.5719003450       24.2353826287        9.0590217143  MEMB      81              0.0000000000
      9982        81  QMPE      H4Y            32.8576500650       24.3272515072        7.8139044318  MEMB      81              0.0000000000
      9983        81  QMPE      C35            31.4392460802       26.0900189039        7.9241536155  MEMB      81              0.0000000000
      9984        81  QMPE      H5X            32.0542937940       26.8268242710        7.3645515585  MEMB      81              0.0000000000
      9985        81  QMPE      H5Y            30.8161601182       26.4814075206        8.7565596418  MEMB      81              0.0000000000
      9986        81  QMPE      C36            30.5066106927       25.5642156078        6.7529205794  MEMB      81              0.0000000000
      9987        81  QMPE      H6X            29.8081957994       24.7919071726        7.1403176179  MEMB      81              0.0000000000
      9988        81  QMPE      H6Y            31.0615633410       25.0507414197        5.9388601927  MEMB      81              0.0000000000
      9989        81  QMPE      C37            29.5865932226       26.6548980162        6.1360848386  MEMB      81              0.0000000000
      9990        81  QMPE      H7X            28.7893340049       26.1339470829        5.5639761212  MEMB      81              0.0000000000
      9991        81  QMPE      H7Y            29.1226553054       27.3487642016        6.8693194011  MEMB      81              0.0000000000
      9992        81  QMPE      C38            30.3019740894       27.6228944432        5.2183514114  MEMB      81              0.0000000000
      9993        81  QMPE      H8X            29.6353063392       28.2674510142        4.6064520249  MEMB      81              0.0000000000
      9994        81  QMPE      H8Y            30.7617192975       28.3805229295        5.8883919870  MEMB      81              0.0000000000
      9995        81  QMPE      C39            31.3855358890       26.9081302496        4.3242484474  MEMB      81              0.0000000000
      9996        81  QMPE      H9X            30.8991011194       26.0832824178        3.7609298273  MEMB      81              0.0000000000
      9997        81  QMPE      H9Y            32.2321953935       26.4945047528        4.9128082099  MEMB      81              0.0000000000
      9998        81  QMPE      C310           31.9655671035       27.7807970295        3.2787176410  MEMB      81              0.0000000000
      9999        81  QMPE      H10X           31.2539863010       28.1501993147        2.5096178245  MEMB      81              0.0000000000
     10000        81  QMPE      H10Y           32.8514504470       27.3075916822        2.8037356903  MEMB      81              0.0000000000
     10001        81  QMPE      C311           32.3592919313       29.1208610465        3.9060172866  MEMB      81              0.0000000000
     10002        81  QMPE      H11X           32.8804738921       28.9215878865        4.8667358087  MEMB      81              0.0000000000
     10003        81  QMPE      H11Y           31.3994856202       29.6043498542        4.1876754000  MEMB      81              0.0000000000
     10004        81  QMPE      C312           33.2117206748       30.0620497074        2.9676814444  MEMB      81              0.0000000000
     10005        81  QMPE      H12X           33.1080895401       31.0986878372        3.3536387179  MEMB      81              0.0000000000
     10006        81  QMPE      H12Y           32.8333549803       29.9787329020        1.9264233088  MEMB      81              0.0000000000
     10007        81  QMPE      C313           34.7317257655       29.7618171528        2.9296935487  MEMB      81              0.0000000000
     10008        81  QMPE      H13X           35.2596861647       30.1908988230        3.8080252814  MEMB      81              0.0000000000
     10009        81  QMPE      H13Y           34.8812789294       28.6658670067        3.0338458354  MEMB      81              0.0000000000
     10010        81  QMPE      C314           35.4806368891       30.3336266707        1.7304041567  MEMB      81              0.0000000000
     10011        81  QMPE      H14X           36.5223818546       30.4673040525        2.0926456526  MEMB      81              0.0000000000
     10012        81  QMPE      H14Y           35.0439219349       31.3330747278        1.5189708018  MEMB      81              0.0000000000
     10013        81  QMPE      C315           35.3940669831       29.5427027348        0.4749859705  MEMB      81              0.0000000000
     10014        81  QMPE      H15X           35.6475710536       28.4848064949        0.7006231377  MEMB      81              0.0000000000
     10015        81  QMPE      H15Y           34.3197922492       29.4026442068        0.2287377574  MEMB      81              0.0000000000
     10016        81  QMPE      H15Z           35.9138643517       30.0089843096       -0.3891388882  MEMB      81              0.0000000000
     10017        82  PMPE      N             -41.4411435365       15.7129550353       19.8053208921  MEMB      82              0.0000000000
     10018        82  PMPE      HN1           -41.8703897028       15.9580491193       18.8902925612  MEMB      82              0.0000000000
     10019        82  PMPE      HN2           -42.1241777735       15.5482990696       20.5721016884  MEMB      82              0.0000000000
     10020        82  PMPE      HN3           -40.6965049119       16.4295599981       19.9218989107  MEMB      82              0.0000000000
     10021        82  PMPE      C12           -40.6337321014       14.4067025218       19.7449718879  MEMB      82              0.0000000000
     10022        82  PMPE      H12A          -41.3310167841       13.5428662052       19.7013606020  MEMB      82              0.0000000000
     10023        82  PMPE      H12B          -39.9795047855       14.2449976951       20.6282379730  MEMB      82              0.0000000000
     10024        82  PMPE      C11           -39.6882073073       14.2065793106       18.4653147757  MEMB      82              0.0000000000
     10025        82  PMPE      H11A          -38.9227470052       14.9990192241       18.3223793059  MEMB      82              0.0000000000
     10026        82  PMPE      H11B          -40.3662691208       14.1509508327       17.5869875417  MEMB      82              0.0000000000
     10027        82  PMPE      P             -37.3878336381       12.8575887323       18.8912486408  MEMB      82              0.0000000000
     10028        82  PMPE      O13           -37.2906072559       11.5030150975       19.4732232217  MEMB      82              0.0000000000
     10029        82  PMPE      O14           -36.9762355482       14.0225010841       19.6213715086  MEMB      82              0.0000000000
     10030        82  PMPE      O11           -36.6101237502       12.8393563634       17.5442885796  MEMB      82              0.0000000000
     10031        82  PMPE      O12           -38.9348776505       12.9885106574       18.4542604959  MEMB      82              0.0000000000
     10032        82  PMPE      C1            -37.3668284877       12.4461922238       16.3554611418  MEMB      82              0.0000000000
     10033        82  PMPE      HA            -38.3012768948       13.0450499328       16.3054943910  MEMB      82              0.0000000000
     10034        82  PMPE      HB            -37.6271083221       11.3675980312       16.4121173538  MEMB      82              0.0000000000
     10035        82  PMPE      C2            -36.6386528477       12.6660351382       15.0069737849  MEMB      82              0.0000000000
     10036        82  PMPE      HS            -35.7832492148       11.9571707758       15.0177919957  MEMB      82              0.0000000000
     10037        82  PMPE      O21           -36.1221076148       14.0294796085       14.9930127557  MEMB      82              0.0000000000
     10038        82  PMPE      C21           -34.9902162230       14.1903202694       14.2604704191  MEMB      82              0.0000000000
     10039        82  PMPE      O22           -34.2992575338       13.3676890056       13.7674143799  MEMB      82              0.0000000000
     10040        82  PMPE      C22           -34.7744675266       15.7100385072       14.1669993855  MEMB      82              0.0000000000
     10041        82  PMPE      H2R           -33.7428501902       16.0080972303       14.4520384216  MEMB      82              0.0000000000
     10042        82  PMPE      H2S           -35.3430177865       16.1256631087       15.0262593612  MEMB      82              0.0000000000
     10043        82  PMPE      C3            -37.6434431760       12.5057214604       13.9511816702  MEMB      82              0.0000000000
     10044        82  PMPE      HX            -38.4803990770       13.2259809466       14.0738683649  MEMB      82              0.0000000000
     10045        82  PMPE      HY            -38.1676927901       11.5263090330       13.9665111572  MEMB      82              0.0000000000
     10046        82  PMPE      O31           -37.0134291081       12.7280932966       12.7190667947  MEMB      82              0.0000000000
     10047        82  PMPE      C31           -36.5500527666       11.5978886999       12.1050133816  MEMB      82              0.0000000000
     10048        82  PMPE      O32           -36.4603651077       10.4895489784       12.6220370288  MEMB      82              0.0000000000
     10049        82  PMPE      C32           -35.9068022702       12.1768022578       10.7867164002  MEMB      82              0.0000000000
     10050        82  PMPE      H2X           -35.8335663433       13.2825550172       10.7075413420  MEMB      82              0.0000000000
     10051        82  PMPE      H2Y           -36.5917994257       11.8653197629        9.9693556039  MEMB      82              0.0000000000
     10052        82  PMPE      C23           -35.1882247134       16.3217165911       12.8336698853  MEMB      82              0.0000000000
     10053        82  PMPE      H3R           -34.9614239054       15.5246043083       12.0937411816  MEMB      82              0.0000000000
     10054        82  PMPE      H3S           -34.6199644446       17.2331220236       12.5495198296  MEMB      82              0.0000000000
     10055        82  PMPE      C24           -36.6747287832       16.6361759246       12.8348955872  MEMB      82              0.0000000000
     10056        82  PMPE      H4R           -36.9237776817       17.1291537602       13.7988817769  MEMB      82              0.0000000000
     10057        82  PMPE      H4S           -37.1654385144       15.6395089063       12.8214788452  MEMB      82              0.0000000000
     10058        82  PMPE      C25           -37.1410641271       17.4921152246       11.6401647929  MEMB      82              0.0000000000
     10059        82  PMPE      H5R           -36.5540909921       18.4332277438       11.7041240217  MEMB      82              0.0000000000
     10060        82  PMPE      H5S           -38.1520353419       17.8529223819       11.9266546615  MEMB      82              0.0000000000
     10061        82  PMPE      C26           -36.9404951858       16.8095190547       10.3367799081  MEMB      82              0.0000000000
     10062        82  PMPE      H6R           -36.0507518261       16.1865925952       10.1030267239  MEMB      82              0.0000000000
     10063        82  PMPE      H6S           -36.9853994214       17.6586052393        9.6216871930  MEMB      82              0.0000000000
     10064        82  PMPE      C27           -38.0858634685       15.7641945481       10.0258739985  MEMB      82              0.0000000000
     10065        82  PMPE      H7R           -39.0603123197       16.2163321855       10.3093204579  MEMB      82              0.0000000000
     10066        82  PMPE      H7S           -37.8103419499       14.9598592261       10.7410333212  MEMB      82              0.0000000000
     10067        82  PMPE      C28           -38.2160276428       15.1959252814        8.6331589793  MEMB      82              0.0000000000
     10068        82  PMPE      H8R           -37.4602249807       14.3816263866        8.6339782557  MEMB      82              0.0000000000
     10069        82  PMPE      H8S           -37.9138776214       15.9125492933        7.8397642818  MEMB      82              0.0000000000
     10070        82  PMPE      C29           -39.6396799259       14.6610273277        8.5201238270  MEMB      82              0.0000000000
     10071        82  PMPE      H9R           -40.4285972625       15.4432646015        8.5141847559  MEMB      82              0.0000000000
     10072        82  PMPE      C217          -39.8761174606       13.3087228936        9.2633562479  MEMB      82              0.0000000000
     10073        82  PMPE      H17R          -40.8322336433       13.2913710814        9.7717163167  MEMB      82              0.0000000000
     10074        82  PMPE      H17S          -38.9521453300       12.9584923215        9.7066429735  MEMB      82              0.0000000000
     10075        82  PMPE      C210          -39.8178239451       13.3510911475        7.7618129739  MEMB      82              0.0000000000
     10076        82  PMPE      H10R          -40.7741211453       13.3586990461        7.1963411765  MEMB      82              0.0000000000
     10077        82  PMPE      C211          -38.5913270744       12.6664357389        7.0920556951  MEMB      82              0.0000000000
     10078        82  PMPE      H11R          -37.9957919182       12.2450136584        7.9299471187  MEMB      82              0.0000000000
     10079        82  PMPE      H11S          -37.9623795002       13.3339185618        6.4649888029  MEMB      82              0.0000000000
     10080        82  PMPE      C212          -39.0471168363       11.5188339920        6.0388422411  MEMB      82              0.0000000000
     10081        82  PMPE      H12R          -40.0602362759       11.7895457980        5.6719289873  MEMB      82              0.0000000000
     10082        82  PMPE      H12S          -39.0547751819       10.5244434616        6.5342714528  MEMB      82              0.0000000000
     10083        82  PMPE      C213          -38.1556363944       11.3829315833        4.7928184127  MEMB      82              0.0000000000
     10084        82  PMPE      H13R          -38.0087115396       12.4439108765        4.4977634097  MEMB      82              0.0000000000
     10085        82  PMPE      H13S          -38.6615949849       10.9575199127        3.8998734093  MEMB      82              0.0000000000
     10086        82  PMPE      C214          -36.7373344696       10.9291506606        4.9441374601  MEMB      82              0.0000000000
     10087        82  PMPE      H14R          -36.6638550814        9.9900501275        5.5332159703  MEMB      82              0.0000000000
     10088        82  PMPE      H14S          -36.3166828886       11.7688362131        5.5376876055  MEMB      82              0.0000000000
     10089        82  PMPE      C215          -35.9304451033       10.7391665853        3.6329189935  MEMB      82              0.0000000000
     10090        82  PMPE      H15R          -36.2875283530        9.7941748630        3.1705300874  MEMB      82              0.0000000000
     10091        82  PMPE      H15S          -34.8520905240       10.5602420661        3.8315603314  MEMB      82              0.0000000000
     10092        82  PMPE      C216          -36.0438137565       11.8888787790        2.5845165575  MEMB      82              0.0000000000
     10093        82  PMPE      H16R          -35.4911313959       12.7135976200        3.0832168573  MEMB      82              0.0000000000
     10094        82  PMPE      H16S          -35.3723666950       11.4712477367        1.8040906788  MEMB      82              0.0000000000
     10095        82  PMPE      H16T          -37.1037966337       12.1264936937        2.3515006418  MEMB      82              0.0000000000
     10096        82  PMPE      C33           -34.5407832020       11.4963077757       10.3776871666  MEMB      82              0.0000000000
     10097        82  PMPE      H3X           -34.5133267636       11.2122707330        9.3039603021  MEMB      82              0.0000000000
     10098        82  PMPE      H3Y           -34.2773043979       10.6273288156       11.0178245416  MEMB      82              0.0000000000
     10099        82  PMPE      C34           -33.2787063102       12.3917822827       10.5495626872  MEMB      82              0.0000000000
     10100        82  PMPE      H4X           -32.4361108550       11.7953995431       10.1388544601  MEMB      82              0.0000000000
     10101        82  PMPE      H4Y           -33.0904288531       12.5557148938       11.6321513532  MEMB      82              0.0000000000
     10102        82  PMPE      C35           -33.2762751928       13.6955771005        9.7445232862  MEMB      82              0.0000000000
     10103        82  PMPE      H5X           -32.3452631039       14.2369117243       10.0174599679  MEMB      82              0.0000000000
     10104        82  PMPE      H5Y           -34.1152210183       14.3600144804       10.0428758653  MEMB      82              0.0000000000
     10105        82  PMPE      C36           -33.2053453108       13.5029716534        8.2345667124  MEMB      82              0.0000000000
     10106        82  PMPE      H6X           -33.9136280190       12.7004924863        7.9367683349  MEMB      82              0.0000000000
     10107        82  PMPE      H6Y           -32.2060588494       13.1413134170        7.9106057379  MEMB      82              0.0000000000
     10108        82  PMPE      C37           -33.5503083968       14.6841189649        7.4023241303  MEMB      82              0.0000000000
     10109        82  PMPE      H7X           -32.9012927474       15.5452681470        7.6697598443  MEMB      82              0.0000000000
     10110        82  PMPE      H7Y           -34.5679138539       15.0334372008        7.6794106467  MEMB      82              0.0000000000
     10111        82  PMPE      C38           -33.4854582018       14.4902299491        5.8296882225  MEMB      82              0.0000000000
     10112        82  PMPE      H8X           -33.6098248979       13.3878230715        5.7700813159  MEMB      82              0.0000000000
     10113        82  PMPE      H8Y           -32.4812056516       14.8795964319        5.5573066720  MEMB      82              0.0000000000
     10114        82  PMPE      C39           -34.5144217396       15.3131649725        4.9458892643  MEMB      82              0.0000000000
     10115        82  PMPE      H9X           -34.2324916181       15.0273278845        3.9099674360  MEMB      82              0.0000000000
     10116        82  PMPE      H9Y           -34.2209943090       16.3803380364        5.0426521013  MEMB      82              0.0000000000
     10117        82  PMPE      C310          -35.9490043673       14.9472071348        5.1163588018  MEMB      82              0.0000000000
     10118        82  PMPE      H10X          -36.2493351301       14.9656211905        6.1858373004  MEMB      82              0.0000000000
     10119        82  PMPE      H10Y          -36.0659219178       13.8658789484        4.8896861412  MEMB      82              0.0000000000
     10120        82  PMPE      C311          -37.0265975680       15.9210936618        4.4632982708  MEMB      82              0.0000000000
     10121        82  PMPE      H11X          -36.6668623019       16.3245160175        3.4926486535  MEMB      82              0.0000000000
     10122        82  PMPE      H11Y          -37.0448778660       16.7448936432        5.2085097065  MEMB      82              0.0000000000
     10123        82  PMPE      C312          -38.4580834749       15.3894249010        4.2554804891  MEMB      82              0.0000000000
     10124        82  PMPE      H12X          -38.6787183692       14.6519998585        5.0566330056  MEMB      82              0.0000000000
     10125        82  PMPE      H12Y          -38.6196214975       14.7703280296        3.3472150130  MEMB      82              0.0000000000
     10126        82  PMPE      C313          -39.5565015057       16.5358942761        4.1705826481  MEMB      82              0.0000000000
     10127        82  PMPE      H13X          -39.2230859459       17.3258477644        3.4640927175  MEMB      82              0.0000000000
     10128        82  PMPE      H13Y          -39.6481219185       16.9567208255        5.1947080292  MEMB      82              0.0000000000
     10129        82  PMPE      C314          -40.9628687673       16.0692000406        3.8754720126  MEMB      82              0.0000000000
     10130        82  PMPE      H14X          -41.2518453289       15.5194507535        4.7966613016  MEMB      82              0.0000000000
     10131        82  PMPE      H14Y          -40.8360215196       15.3890271633        3.0062220003  MEMB      82              0.0000000000
     10132        82  PMPE      C315          -42.0479349045       17.1140073481        3.5988618007  MEMB      82              0.0000000000
     10133        82  PMPE      H15X          -42.0196701575       17.8570870455        4.4243041008  MEMB      82              0.0000000000
     10134        82  PMPE      H15Y          -42.9286529564       16.4499568363        3.7318810649  MEMB      82              0.0000000000
     10135        82  PMPE      C316          -42.0343332507       17.7381773586        2.1964790157  MEMB      82              0.0000000000
     10136        82  PMPE      H16X          -42.3598103004       16.9341231903        1.5023005014  MEMB      82              0.0000000000
     10137        82  PMPE      H16Y          -41.0177861963       18.1793891272        2.1171987599  MEMB      82              0.0000000000
     10138        82  PMPE      H16Z          -42.6931999415       18.6299541185        2.1261252679  MEMB      82              0.0000000000
     10139        83  QMPE      N             -11.1218706206      -43.1877644896       19.7981495979  MEMB      83              0.0000000000
     10140        83  QMPE      HN1           -10.1828587004      -43.6348171681       19.7976019619  MEMB      83              0.0000000000
     10141        83  QMPE      HN2           -11.2201859930      -42.5540884752       20.6169224121  MEMB      83              0.0000000000
     10142        83  QMPE      HN3           -11.9130919137      -43.8626203944       19.7863882601  MEMB      83              0.0000000000
     10143        83  QMPE      C12           -11.0882758130      -42.4083296477       18.5286866834  MEMB      83              0.0000000000
     10144        83  QMPE      H12A          -11.1863847285      -43.1095637788       17.6725520747  MEMB      83              0.0000000000
     10145        83  QMPE      H12B          -10.0965997260      -41.9093700282       18.4846563712  MEMB      83              0.0000000000
     10146        83  QMPE      C11           -12.2504617826      -41.3838174922       18.2748131835  MEMB      83              0.0000000000
     10147        83  QMPE      H11A          -13.2203167679      -41.9257378485       18.2797954489  MEMB      83              0.0000000000
     10148        83  QMPE      H11B          -12.0464425185      -40.8487992736       17.3227351418  MEMB      83              0.0000000000
     10149        83  QMPE      P             -12.6411741472      -39.0240285257       19.1236040536  MEMB      83              0.0000000000
     10150        83  QMPE      O13           -12.4794156286      -38.1898430499       20.3494562376  MEMB      83              0.0000000000
     10151        83  QMPE      O14           -14.0146682299      -39.0685069212       18.5031927949  MEMB      83              0.0000000000
     10152        83  QMPE      O11           -11.5860812198      -38.5495473117       18.0519612552  MEMB      83              0.0000000000
     10153        83  QMPE      O12           -12.1450425889      -40.4442282217       19.3701361919  MEMB      83              0.0000000000
     10154        83  QMPE      C1            -10.3818333594      -37.9678297884       18.4352666300  MEMB      83              0.0000000000
     10155        83  QMPE      HA             -9.9280626621      -38.5592543447       19.2590567110  MEMB      83              0.0000000000
     10156        83  QMPE      HB            -10.5594711302      -36.9765133223       18.9043695143  MEMB      83              0.0000000000
     10157        83  QMPE      C2             -9.3407182555      -37.9688152981       17.2737466314  MEMB      83              0.0000000000
     10158        83  QMPE      HS             -8.3218628904      -37.6424021073       17.5732615163  MEMB      83              0.0000000000
     10159        83  QMPE      O21            -9.8023419139      -37.1925643356       16.1598962081  MEMB      83              0.0000000000
     10160        83  QMPE      C21            -9.1176658781      -36.1237014641       15.9032250080  MEMB      83              0.0000000000
     10161        83  QMPE      O22            -8.0178169322      -35.7988466083       16.3135429995  MEMB      83              0.0000000000
     10162        83  QMPE      C22            -9.8442668677      -35.2875460745       14.8740672741  MEMB      83              0.0000000000
     10163        83  QMPE      H2R            -9.6781167419      -34.3228271849       15.3994551687  MEMB      83              0.0000000000
     10164        83  QMPE      H2S           -10.8760158486      -35.6806809137       14.7505352682  MEMB      83              0.0000000000
     10165        83  QMPE      C3             -9.1596849474      -39.4207086985       16.8351449187  MEMB      83              0.0000000000
     10166        83  QMPE      HX            -10.1322514266      -39.8716402309       16.5434322427  MEMB      83              0.0000000000
     10167        83  QMPE      HY             -8.8021188334      -39.9904499118       17.7193747329  MEMB      83              0.0000000000
     10168        83  QMPE      O31            -8.2626889612      -39.4694348873       15.6547252369  MEMB      83              0.0000000000
     10169        83  QMPE      C31            -8.2606487567      -40.6353085187       15.1481004214  MEMB      83              0.0000000000
     10170        83  QMPE      O32            -8.8281652854      -41.6441884566       15.5851884611  MEMB      83              0.0000000000
     10171        83  QMPE      C32            -7.6519125464      -40.4737320992       13.6391963310  MEMB      83              0.0000000000
     10172        83  QMPE      H2X            -7.1629533456      -39.4793270419       13.5592040446  MEMB      83              0.0000000000
     10173        83  QMPE      H2Y            -6.8579514908      -41.2458914312       13.5513548946  MEMB      83              0.0000000000
     10174        83  QMPE      C23            -9.1102615869      -35.2309032248       13.5029350095  MEMB      83              0.0000000000
     10175        83  QMPE      H3R            -8.0737890876      -34.9568986390       13.7944259232  MEMB      83              0.0000000000
     10176        83  QMPE      H3S            -9.5807370022      -34.4965466332       12.8146804129  MEMB      83              0.0000000000
     10177        83  QMPE      C24            -9.1553710840      -36.5769097734       12.7614388849  MEMB      83              0.0000000000
     10178        83  QMPE      H4R            -8.5511146343      -37.3107678560       13.3364584839  MEMB      83              0.0000000000
     10179        83  QMPE      H4S            -8.5155686752      -36.3471979880       11.8826858866  MEMB      83              0.0000000000
     10180        83  QMPE      C25           -10.5103238689      -37.3171731187       12.4077117615  MEMB      83              0.0000000000
     10181        83  QMPE      H5R           -11.0122160140      -37.6586931888       13.3381897851  MEMB      83              0.0000000000
     10182        83  QMPE      H5S           -10.2483491247      -38.2066331701       11.7957060880  MEMB      83              0.0000000000
     10183        83  QMPE      C26           -11.4046355932      -36.4233526687       11.5646795387  MEMB      83              0.0000000000
     10184        83  QMPE      H6R           -11.4219681092      -35.4151759022       12.0311563418  MEMB      83              0.0000000000
     10185        83  QMPE      H6S           -12.4171056717      -36.8769044084       11.6239786150  MEMB      83              0.0000000000
     10186        83  QMPE      C27           -10.9547580838      -36.3439115065       10.1274823320  MEMB      83              0.0000000000
     10187        83  QMPE      H7R           -10.7487952235      -37.3632229496        9.7364520495  MEMB      83              0.0000000000
     10188        83  QMPE      H7S            -9.9928243723      -35.7967195014       10.0295773111  MEMB      83              0.0000000000
     10189        83  QMPE      C28           -12.0037504503      -35.6802599455        9.1218444525  MEMB      83              0.0000000000
     10190        83  QMPE      H8R           -12.7104632680      -36.4932613513        8.8499862862  MEMB      83              0.0000000000
     10191        83  QMPE      H8S           -11.3860753479      -35.3652575521        8.2537591292  MEMB      83              0.0000000000
     10192        83  QMPE      C29           -12.7918065419      -34.5596444722        9.7906421190  MEMB      83              0.0000000000
     10193        83  QMPE      H9R           -12.2529804440      -33.7514172928       10.3298601796  MEMB      83              0.0000000000
     10194        83  QMPE      C217          -14.0638446390      -34.9456500150       10.4579543405  MEMB      83              0.0000000000
     10195        83  QMPE      H17R          -14.3240499008      -35.9883571944       10.3239992644  MEMB      83              0.0000000000
     10196        83  QMPE      H17S          -14.1864932961      -34.4156265330       11.3943957806  MEMB      83              0.0000000000
     10197        83  QMPE      C210          -14.1249042204      -34.0709613775        9.2280655075  MEMB      83              0.0000000000
     10198        83  QMPE      H10R          -14.2246526493      -32.9690354528        9.3287166859  MEMB      83              0.0000000000
     10199        83  QMPE      C211          -14.6692585662      -34.7769992786        7.9561690906  MEMB      83              0.0000000000
     10200        83  QMPE      H11R          -14.4044811335      -35.8559212635        7.9442768696  MEMB      83              0.0000000000
     10201        83  QMPE      H11S          -15.7477413688      -34.5585652794        7.8029303138  MEMB      83              0.0000000000
     10202        83  QMPE      C212          -13.9674822510      -34.0580189000        6.7741433416  MEMB      83              0.0000000000
     10203        83  QMPE      H12R          -12.8718892994      -34.1415219076        6.9385337197  MEMB      83              0.0000000000
     10204        83  QMPE      H12S          -14.2367561457      -32.9849517658        6.6724616060  MEMB      83              0.0000000000
     10205        83  QMPE      C213          -14.4502582641      -34.7110104608        5.4330703688  MEMB      83              0.0000000000
     10206        83  QMPE      H13R          -15.4792551508      -34.3332921347        5.2519188414  MEMB      83              0.0000000000
     10207        83  QMPE      H13S          -14.3832681333      -35.8141101853        5.5471046779  MEMB      83              0.0000000000
     10208        83  QMPE      C214          -13.5761196238      -34.3558386649        4.2292021658  MEMB      83              0.0000000000
     10209        83  QMPE      H14R          -12.5285874909      -34.6169290327        4.4915551318  MEMB      83              0.0000000000
     10210        83  QMPE      H14S          -13.5553241178      -33.2459449100        4.2741938602  MEMB      83              0.0000000000
     10211        83  QMPE      C215          -13.9426170433      -35.0520975376        2.9432946841  MEMB      83              0.0000000000
     10212        83  QMPE      H15R          -14.5320343848      -35.9829303102        3.0863273968  MEMB      83              0.0000000000
     10213        83  QMPE      H15S          -12.9900875889      -35.3447563863        2.4520108009  MEMB      83              0.0000000000
     10214        83  QMPE      C216          -14.7653719261      -33.9796954673        2.1605951991  MEMB      83              0.0000000000
     10215        83  QMPE      H16R          -14.1835631190      -33.1464005141        1.7117775313  MEMB      83              0.0000000000
     10216        83  QMPE      H16S          -15.4905133252      -33.4476409301        2.8128290034  MEMB      83              0.0000000000
     10217        83  QMPE      H16T          -15.3141730372      -34.4459762154        1.3145934097  MEMB      83              0.0000000000
     10218        83  QMPE      C33            -8.7457474424      -40.5896389961       12.6176261330  MEMB      83              0.0000000000
     10219        83  QMPE      H3X            -8.4602434363      -39.9100780878       11.7863592162  MEMB      83              0.0000000000
     10220        83  QMPE      H3Y            -9.7293872341      -40.2396854398       12.9975036968  MEMB      83              0.0000000000
     10221        83  QMPE      C34            -8.8307401338      -42.0075290086       12.0258842207  MEMB      83              0.0000000000
     10222        83  QMPE      H4X            -9.0895869277      -42.6414663853       12.9007803038  MEMB      83              0.0000000000
     10223        83  QMPE      H4Y            -7.8468819513      -42.3742144573       11.6627236334  MEMB      83              0.0000000000
     10224        83  QMPE      C35            -9.8929218244      -42.1416112703       10.9250070323  MEMB      83              0.0000000000
     10225        83  QMPE      H5X           -10.8134294930      -41.7277111919       11.3894135490  MEMB      83              0.0000000000
     10226        83  QMPE      H5Y            -9.9970440343      -43.2279880029       10.7170048189  MEMB      83              0.0000000000
     10227        83  QMPE      C36            -9.6095935385      -41.3776654153        9.6460200139  MEMB      83              0.0000000000
     10228        83  QMPE      H6X            -8.6520589415      -41.7622195630        9.2342360439  MEMB      83              0.0000000000
     10229        83  QMPE      H6Y            -9.4074639420      -40.3122671410        9.8876627632  MEMB      83              0.0000000000
     10230        83  QMPE      C37           -10.6665564055      -41.4394719804        8.4620637536  MEMB      83              0.0000000000
     10231        83  QMPE      H7X           -10.1482882138      -41.0248604230        7.5710998920  MEMB      83              0.0000000000
     10232        83  QMPE      H7Y           -11.0784658503      -42.4065511839        8.1023280993  MEMB      83              0.0000000000
     10233        83  QMPE      C38           -11.8874157987      -40.5372882149        8.6761139906  MEMB      83              0.0000000000
     10234        83  QMPE      H8X           -12.4259677303      -40.8172913017        9.6066406665  MEMB      83              0.0000000000
     10235        83  QMPE      H8Y           -11.5022592435      -39.4966578560        8.7314681601  MEMB      83              0.0000000000
     10236        83  QMPE      C39           -12.9034743395      -40.5534017380        7.4417884593  MEMB      83              0.0000000000
     10237        83  QMPE      H9X           -13.7320079182      -39.8440500548        7.6531491527  MEMB      83              0.0000000000
     10238        83  QMPE      H9Y           -13.3629444968      -41.5640088787        7.3984119662  MEMB      83              0.0000000000
     10239        83  QMPE      C310          -12.2500507914      -40.0335230524        6.0990006596  MEMB      83              0.0000000000
     10240        83  QMPE      H10X          -13.0177333406      -40.2640358248        5.3296839048  MEMB      83              0.0000000000
     10241        83  QMPE      H10Y          -11.4347533280      -40.7682651255        5.9264753070  MEMB      83              0.0000000000
     10242        83  QMPE      C311          -11.8363488898      -38.5925764205        6.1612443881  MEMB      83              0.0000000000
     10243        83  QMPE      H11X          -11.0553035573      -38.3454282818        6.9117150876  MEMB      83              0.0000000000
     10244        83  QMPE      H11Y          -12.7456546360      -38.0175542300        6.4384326584  MEMB      83              0.0000000000
     10245        83  QMPE      C312          -11.1696818297      -38.0751383644        4.8736835777  MEMB      83              0.0000000000
     10246        83  QMPE      H12X          -11.1661593996      -36.9679588187        4.9656719962  MEMB      83              0.0000000000
     10247        83  QMPE      H12Y          -11.8800966307      -38.3004485552        4.0497500445  MEMB      83              0.0000000000
     10248        83  QMPE      C313           -9.7739923989      -38.6283761430        4.6251181410  MEMB      83              0.0000000000
     10249        83  QMPE      H13X           -9.1894931750      -38.6281812632        5.5699366052  MEMB      83              0.0000000000
     10250        83  QMPE      H13Y           -9.7678001107      -39.6567758073        4.2047890912  MEMB      83              0.0000000000
     10251        83  QMPE      C314           -8.9343301016      -37.8075229532        3.6766984704  MEMB      83              0.0000000000
     10252        83  QMPE      H14X           -7.9113678390      -38.2395513904        3.7116380269  MEMB      83              0.0000000000
     10253        83  QMPE      H14Y           -8.7084468591      -36.8116892001        4.1144344358  MEMB      83              0.0000000000
     10254        83  QMPE      C315           -9.5534207585      -37.8203071319        2.2971327632  MEMB      83              0.0000000000
     10255        83  QMPE      H15X           -9.9636895217      -38.8104818206        2.0046355534  MEMB      83              0.0000000000
     10256        83  QMPE      H15Y          -10.2437013093      -36.9714494002        2.1040687452  MEMB      83              0.0000000000
     10257        83  QMPE      H15Z           -8.7246036895      -37.7726901622        1.5588142487  MEMB      83              0.0000000000
     10258        84  POPE      N             -16.1043130868      -36.0981877369       20.8585004525  MEMB      84              0.0000000000
     10259        84  POPE      HN1           -15.5155029864      -36.6283329951       20.1848176776  MEMB      84              0.0000000000
     10260        84  POPE      HN2           -16.2858742557      -35.2161050290       20.3383411046  MEMB      84              0.0000000000
     10261        84  POPE      HN3           -15.7503858500      -35.9762449220       21.8287918602  MEMB      84              0.0000000000
     10262        84  POPE      C12           -17.4321729726      -36.7955302665       20.9606856328  MEMB      84              0.0000000000
     10263        84  POPE      H12A          -17.6094776628      -36.9914748793       22.0398007316  MEMB      84              0.0000000000
     10264        84  POPE      H12B          -17.4059269022      -37.8069819064       20.5017762572  MEMB      84              0.0000000000
     10265        84  POPE      C11           -18.6291740366      -36.0071066485       20.4048785430  MEMB      84              0.0000000000
     10266        84  POPE      H11A          -18.6760272550      -35.0253562654       20.9228475782  MEMB      84              0.0000000000
     10267        84  POPE      H11B          -19.5214366392      -36.6070792928       20.6845591614  MEMB      84              0.0000000000
     10268        84  POPE      P             -19.0125577171      -36.9001445982       17.9623651887  MEMB      84              0.0000000000
     10269        84  POPE      O13           -20.1336217795      -36.2322256897       17.2573179028  MEMB      84              0.0000000000
     10270        84  POPE      O14           -19.3251134396      -38.1412931835       18.6360591597  MEMB      84              0.0000000000
     10271        84  POPE      O11           -17.7937123391      -37.1712003690       16.9676869944  MEMB      84              0.0000000000
     10272        84  POPE      O12           -18.3771498375      -35.8653890400       18.9525061288  MEMB      84              0.0000000000
     10273        84  POPE      C1            -16.4853192528      -37.4947854608       17.4329337165  MEMB      84              0.0000000000
     10274        84  POPE      HA            -16.5224006475      -38.5013537317       17.9017260335  MEMB      84              0.0000000000
     10275        84  POPE      HB            -16.0810799814      -36.8486818375       18.2413035088  MEMB      84              0.0000000000
     10276        84  POPE      C2            -15.3956439647      -37.5412130271       16.2996678407  MEMB      84              0.0000000000
     10277        84  POPE      HS            -14.3298101611      -37.5225037195       16.6126680471  MEMB      84              0.0000000000
     10278        84  POPE      O21           -15.4904293389      -36.5303774249       15.2080825713  MEMB      84              0.0000000000
     10279        84  POPE      C21           -15.4898327133      -35.2441402614       15.7523386582  MEMB      84              0.0000000000
     10280        84  POPE      O22           -15.2814251298      -34.9204705727       16.9005704081  MEMB      84              0.0000000000
     10281        84  POPE      C22           -15.7382279236      -34.2342114393       14.6041005668  MEMB      84              0.0000000000
     10282        84  POPE      H2R           -14.8849810975      -33.5229324931       14.5847855425  MEMB      84              0.0000000000
     10283        84  POPE      H2S           -16.5281103487      -33.5570580759       14.9938059951  MEMB      84              0.0000000000
     10284        84  POPE      C3            -15.3715220463      -38.9500117312       15.5814386349  MEMB      84              0.0000000000
     10285        84  POPE      HX            -15.3556321857      -39.7356000295       16.3668809978  MEMB      84              0.0000000000
     10286        84  POPE      HY            -14.4216603556      -39.0097033910       15.0082711568  MEMB      84              0.0000000000
     10287        84  POPE      O31           -16.4897096842      -39.1062689620       14.6896689185  MEMB      84              0.0000000000
     10288        84  POPE      C31           -17.5974261135      -39.6496741212       15.1502878596  MEMB      84              0.0000000000
     10289        84  POPE      O32           -17.8380574635      -40.2058745485       16.2204918522  MEMB      84              0.0000000000
     10290        84  POPE      C32           -18.5779709285      -39.6861967936       13.9345669785  MEMB      84              0.0000000000
     10291        84  POPE      H2X           -19.5929791181      -40.0446964106       14.2094440109  MEMB      84              0.0000000000
     10292        84  POPE      H2Y           -18.1671477221      -40.4477191909       13.2376967044  MEMB      84              0.0000000000
     10293        84  POPE      C23           -16.1028001318      -34.8199569802       13.2576619647  MEMB      84              0.0000000000
     10294        84  POPE      H3R           -17.0612317383      -35.3459793245       13.4552229854  MEMB      84              0.0000000000
     10295        84  POPE      H3S           -15.2209127445      -35.3752459033       12.8726292074  MEMB      84              0.0000000000
     10296        84  POPE      C24           -16.6110240649      -33.6741843280       12.4083202733  MEMB      84              0.0000000000
     10297        84  POPE      H4R           -16.2164699569      -32.6864054794       12.7291644757  MEMB      84              0.0000000000
     10298        84  POPE      H4S           -17.7110829792      -33.6135513330       12.5515511163  MEMB      84              0.0000000000
     10299        84  POPE      C25           -16.2193782553      -33.8038869459       10.9149596534  MEMB      84              0.0000000000
     10300        84  POPE      H5R           -15.1657721493      -34.1501214264       10.9809695544  MEMB      84              0.0000000000
     10301        84  POPE      H5S           -16.2046932601      -32.8369033545       10.3681065673  MEMB      84              0.0000000000
     10302        84  POPE      C26           -17.0694962623      -34.8028313391       10.1494664527  MEMB      84              0.0000000000
     10303        84  POPE      H6R           -18.1242271042      -34.4836732428       10.2908951897  MEMB      84              0.0000000000
     10304        84  POPE      H6S           -16.8086658647      -35.7625350919       10.6447006006  MEMB      84              0.0000000000
     10305        84  POPE      C27           -16.7261354350      -34.9230690058        8.7145457184  MEMB      84              0.0000000000
     10306        84  POPE      H7R           -15.6268663237      -34.9884501938        8.5673925228  MEMB      84              0.0000000000
     10307        84  POPE      H7S           -16.9717169346      -33.9674649483        8.2038283110  MEMB      84              0.0000000000
     10308        84  POPE      C28           -17.3123891022      -36.1890680924        8.1097209819  MEMB      84              0.0000000000
     10309        84  POPE      H8R           -17.2410545933      -36.9376744373        8.9275354205  MEMB      84              0.0000000000
     10310        84  POPE      H8S           -16.5595966211      -36.4959145898        7.3524431815  MEMB      84              0.0000000000
     10311        84  POPE      C29           -18.6357238045      -36.0993357717        7.4719067427  MEMB      84              0.0000000000
     10312        84  POPE      H91           -19.5006622640      -36.4864244634        8.0305162476  MEMB      84              0.0000000000
     10313        84  POPE      C210          -18.8766869748      -35.5303660916        6.4063939622  MEMB      84              0.0000000000
     10314        84  POPE      H101          -19.7781569541      -35.8234725639        5.8483254434  MEMB      84              0.0000000000
     10315        84  POPE      C211          -17.8017033101      -34.8857734137        5.5540676654  MEMB      84              0.0000000000
     10316        84  POPE      H11R          -16.8013732225      -35.3567112478        5.6630528558  MEMB      84              0.0000000000
     10317        84  POPE      H11S          -17.8078427157      -33.8004667747        5.7915396306  MEMB      84              0.0000000000
     10318        84  POPE      C212          -18.0777112117      -35.1654795419        4.0231569615  MEMB      84              0.0000000000
     10319        84  POPE      H12R          -18.9717176130      -34.5759109201        3.7273836768  MEMB      84              0.0000000000
     10320        84  POPE      H12S          -18.2789753171      -36.2254384701        3.7580141394  MEMB      84              0.0000000000
     10321        84  POPE      C213          -17.0359232249      -34.7618673983        2.9156454373  MEMB      84              0.0000000000
     10322        84  POPE      H13R          -16.0686238304      -35.2720635692        3.1114845943  MEMB      84              0.0000000000
     10323        84  POPE      H13S          -16.8979038198      -33.6615047530        2.8487584842  MEMB      84              0.0000000000
     10324        84  POPE      C214          -17.3601339076      -35.4581646802        1.5793970079  MEMB      84              0.0000000000
     10325        84  POPE      H14R          -17.4785065917      -36.5573662720        1.6892328476  MEMB      84              0.0000000000
     10326        84  POPE      H14S          -16.4873967068      -35.4150115889        0.8932559681  MEMB      84              0.0000000000
     10327        84  POPE      C215          -18.6073984636      -34.8059789200        0.9118038704  MEMB      84              0.0000000000
     10328        84  POPE      H15R          -18.3533835874      -33.7300625401        0.8013424838  MEMB      84              0.0000000000
     10329        84  POPE      H15S          -19.4800279329      -34.7778701168        1.5988615167  MEMB      84              0.0000000000
     10330        84  POPE      C216          -18.9490492834      -35.5654779627       -0.4047096002  MEMB      84              0.0000000000
     10331        84  POPE      H16R          -19.9617923714      -35.1977743955       -0.6757559245  MEMB      84              0.0000000000
     10332        84  POPE      H16S          -19.0074820581      -36.6667903644       -0.2704802249  MEMB      84              0.0000000000
     10333        84  POPE      C217          -18.1026114211      -35.1389119196       -1.6102628037  MEMB      84              0.0000000000
     10334        84  POPE      H17R          -17.6116134465      -34.1450321981       -1.5364736324  MEMB      84              0.0000000000
     10335        84  POPE      H17S          -18.7238540262      -34.9598303379       -2.5137592914  MEMB      84              0.0000000000
     10336        84  POPE      C218          -17.0740556900      -36.1739552965       -2.1007044453  MEMB      84              0.0000000000
     10337        84  POPE      H18R          -16.4171650076      -35.8148427809       -2.9215889599  MEMB      84              0.0000000000
     10338        84  POPE      H18S          -17.5525168444      -37.1370001111       -2.3798825882  MEMB      84              0.0000000000
     10339        84  POPE      H18T          -16.3955054473      -36.5300960337       -1.2963072980  MEMB      84              0.0000000000
     10340        84  POPE      C33           -18.7458307862      -38.3208737055       13.2832979972  MEMB      84              0.0000000000
     10341        84  POPE      H3X           -17.8265300174      -37.8429020158       12.8823615585  MEMB      84              0.0000000000
     10342        84  POPE      H3Y           -19.0516433778      -37.5215346555       13.9917166372  MEMB      84              0.0000000000
     10343        84  POPE      C34           -19.8151325970      -38.1132958836       12.2132557877  MEMB      84              0.0000000000
     10344        84  POPE      H4X           -19.9485197058      -37.0222521495       12.0515387240  MEMB      84              0.0000000000
     10345        84  POPE      H4Y           -20.7602708054      -38.6367728400       12.4721121278  MEMB      84              0.0000000000
     10346        84  POPE      C35           -19.3672484349      -38.7455157567       10.8377422976  MEMB      84              0.0000000000
     10347        84  POPE      H5X           -18.9239245845      -39.7398903519       11.0591099898  MEMB      84              0.0000000000
     10348        84  POPE      H5Y           -18.5147040687      -38.1067230414       10.5224125426  MEMB      84              0.0000000000
     10349        84  POPE      C36           -20.4770412504      -38.7870907282        9.7592354745  MEMB      84              0.0000000000
     10350        84  POPE      H6X           -20.8855996569      -37.7994375851        9.4560148155  MEMB      84              0.0000000000
     10351        84  POPE      H6Y           -21.3375258533      -39.4326251326       10.0370345648  MEMB      84              0.0000000000
     10352        84  POPE      C37           -20.0847693929      -39.2572012302        8.3929836536  MEMB      84              0.0000000000
     10353        84  POPE      H7X           -19.7702188412      -40.3157363632        8.5149748989  MEMB      84              0.0000000000
     10354        84  POPE      H7Y           -19.2746964224      -38.6681818515        7.9121937031  MEMB      84              0.0000000000
     10355        84  POPE      C38           -21.2349133296      -39.1584372278        7.3113825141  MEMB      84              0.0000000000
     10356        84  POPE      H8X           -21.4276075172      -38.0705845385        7.1940536561  MEMB      84              0.0000000000
     10357        84  POPE      H8Y           -22.1680198863      -39.5900834455        7.7324705236  MEMB      84              0.0000000000
     10358        84  POPE      C39           -20.9682026706      -39.7026891553        5.9536731246  MEMB      84              0.0000000000
     10359        84  POPE      H9X           -20.9799404488      -40.8118887114        6.0157956680  MEMB      84              0.0000000000
     10360        84  POPE      H9Y           -19.9669025143      -39.3808742046        5.5956863687  MEMB      84              0.0000000000
     10361        84  POPE      C310          -22.0651583534      -39.2832660029        4.9742173619  MEMB      84              0.0000000000
     10362        84  POPE      H10X          -22.9829477041      -39.2961331908        5.6001709216  MEMB      84              0.0000000000
     10363        84  POPE      H10Y          -22.1690096277      -39.9603212485        4.0994987840  MEMB      84              0.0000000000
     10364        84  POPE      C311          -21.9889922527      -37.8093652615        4.4822612969  MEMB      84              0.0000000000
     10365        84  POPE      H11X          -20.9883230523      -37.6863095369        4.0155283780  MEMB      84              0.0000000000
     10366        84  POPE      H11Y          -22.0092557144      -37.2367766455        5.4341286868  MEMB      84              0.0000000000
     10367        84  POPE      C312          -23.1467194069      -37.3516944803        3.5383844974  MEMB      84              0.0000000000
     10368        84  POPE      H12X          -23.0515586585      -36.2518313849        3.6631510589  MEMB      84              0.0000000000
     10369        84  POPE      H12Y          -24.1467523356      -37.6111418281        3.9469704120  MEMB      84              0.0000000000
     10370        84  POPE      C313          -22.8985505156      -37.8859347814        2.0956023369  MEMB      84              0.0000000000
     10371        84  POPE      H13X          -23.1002525070      -38.9781813560        2.0704071470  MEMB      84              0.0000000000
     10372        84  POPE      H13Y          -21.8299022534      -37.6297762048        1.9322173974  MEMB      84              0.0000000000
     10373        84  POPE      C314          -23.8126493480      -37.2211741276        1.0302146004  MEMB      84              0.0000000000
     10374        84  POPE      H14X          -23.6625829754      -36.1228129466        0.9567043526  MEMB      84              0.0000000000
     10375        84  POPE      H14Y          -24.8059827053      -37.2470469444        1.5271459493  MEMB      84              0.0000000000
     10376        84  POPE      C315          -23.9232611401      -37.8438690039       -0.3808966429  MEMB      84              0.0000000000
     10377        84  POPE      H15X          -24.8485132220      -37.4408575138       -0.8454510384  MEMB      84              0.0000000000
     10378        84  POPE      H15Y          -24.0115434881      -38.9474537187       -0.2880071753  MEMB      84              0.0000000000
     10379        84  POPE      C316          -22.7016042091      -37.5623327240       -1.1680537308  MEMB      84              0.0000000000
     10380        84  POPE      H16X          -21.8363770533      -38.1825834056       -0.8502604845  MEMB      84              0.0000000000
     10381        84  POPE      H16Y          -22.3069641458      -36.5294223238       -1.0599961734  MEMB      84              0.0000000000
     10382        84  POPE      H16Z          -22.7757858607      -37.8242144647       -2.2451972808  MEMB      84              0.0000000000
     10383        85  POPE      N              19.3078653189      -39.0760037621       21.5653137981  MEMB      85              0.0000000000
     10384        85  POPE      HN1            19.1403945011      -38.2117255341       22.1190073906  MEMB      85              0.0000000000
     10385        85  POPE      HN2            19.5208324764      -39.8326838004       22.2462545736  MEMB      85              0.0000000000
     10386        85  POPE      HN3            20.1076401469      -38.9895323042       20.9061605723  MEMB      85              0.0000000000
     10387        85  POPE      C12            18.0432641008      -39.2330003774       20.7693944321  MEMB      85              0.0000000000
     10388        85  POPE      H12A           17.2346940968      -38.6076336013       21.2046551705  MEMB      85              0.0000000000
     10389        85  POPE      H12B           17.6184041331      -40.2498538277       20.9101908659  MEMB      85              0.0000000000
     10390        85  POPE      C11            18.4110491512      -38.7144085393       19.3420077989  MEMB      85              0.0000000000
     10391        85  POPE      H11A           17.5628019437      -39.0357365054       18.7004892890  MEMB      85              0.0000000000
     10392        85  POPE      H11B           19.2330740840      -39.3163513469       18.8989943822  MEMB      85              0.0000000000
     10393        85  POPE      P              18.0917866925      -36.4373438595       18.0760598567  MEMB      85              0.0000000000
     10394        85  POPE      O13            18.5747915958      -35.0450754068       18.2459802531  MEMB      85              0.0000000000
     10395        85  POPE      O14            16.6394318273      -36.6153452109       17.9451493284  MEMB      85              0.0000000000
     10396        85  POPE      O11            18.7831067929      -37.1003230498       16.7824971302  MEMB      85              0.0000000000
     10397        85  POPE      O12            18.6700845542      -37.3092997439       19.2735974026  MEMB      85              0.0000000000
     10398        85  POPE      C1             20.1640862870      -37.1994582616       16.7662721910  MEMB      85              0.0000000000
     10399        85  POPE      HA             20.4357382715      -38.0152177738       16.0626651717  MEMB      85              0.0000000000
     10400        85  POPE      HB             20.6095825272      -37.3725386332       17.7692163892  MEMB      85              0.0000000000
     10401        85  POPE      C2             20.8829303066      -35.8992665579       16.2470381125  MEMB      85              0.0000000000
     10402        85  POPE      HS             20.7035059962      -35.0782817058       16.9737510476  MEMB      85              0.0000000000
     10403        85  POPE      O21            20.3172058191      -35.5512134297       14.9925012845  MEMB      85              0.0000000000
     10404        85  POPE      C21            20.2593413266      -34.2418269793       14.7484897057  MEMB      85              0.0000000000
     10405        85  POPE      O22            20.7821347547      -33.3321899849       15.2900739240  MEMB      85              0.0000000000
     10406        85  POPE      C22            19.6739873959      -34.0784862474       13.3595431989  MEMB      85              0.0000000000
     10407        85  POPE      H2R            20.4579004353      -34.1929009791       12.5806271057  MEMB      85              0.0000000000
     10408        85  POPE      H2S            19.3436747799      -33.0277941057       13.2137327840  MEMB      85              0.0000000000
     10409        85  POPE      C3             22.4583150781      -36.0940372750       16.0177727882  MEMB      85              0.0000000000
     10410        85  POPE      HX             22.8871197865      -36.4112445627       16.9923636835  MEMB      85              0.0000000000
     10411        85  POPE      HY             22.8240101259      -35.1034131054       15.6724442007  MEMB      85              0.0000000000
     10412        85  POPE      O31            22.7213306115      -37.1455277272       15.0591752102  MEMB      85              0.0000000000
     10413        85  POPE      C31            22.8695966427      -36.8759116956       13.7547734298  MEMB      85              0.0000000000
     10414        85  POPE      O32            22.7541700563      -35.6952163580       13.3134073177  MEMB      85              0.0000000000
     10415        85  POPE      C32            23.3520323561      -38.1640603301       13.0129424124  MEMB      85              0.0000000000
     10416        85  POPE      H2X            22.8051276224      -39.0461375371       13.4093713922  MEMB      85              0.0000000000
     10417        85  POPE      H2Y            24.4455308559      -38.1877238026       13.2079369591  MEMB      85              0.0000000000
     10418        85  POPE      C23            18.5747173313      -35.1408439917       13.0357280031  MEMB      85              0.0000000000
     10419        85  POPE      H3R            19.0370372981      -36.1503368385       12.9969250609  MEMB      85              0.0000000000
     10420        85  POPE      H3S            18.1672809646      -34.9472171397       12.0204322493  MEMB      85              0.0000000000
     10421        85  POPE      C24            17.3779574104      -34.9249490474       14.0099598849  MEMB      85              0.0000000000
     10422        85  POPE      H4R            17.0287927468      -33.8773113128       14.1318630388  MEMB      85              0.0000000000
     10423        85  POPE      H4S            17.8673195997      -35.0983104767       14.9921981916  MEMB      85              0.0000000000
     10424        85  POPE      C25            16.3186476303      -35.9779517813       13.7638483545  MEMB      85              0.0000000000
     10425        85  POPE      H5R            15.5670882591      -36.0887715904       14.5745262769  MEMB      85              0.0000000000
     10426        85  POPE      H5S            16.6916791616      -37.0204767062       13.8550071156  MEMB      85              0.0000000000
     10427        85  POPE      C26            15.5495543663      -35.8211752744       12.4768722685  MEMB      85              0.0000000000
     10428        85  POPE      H6R            16.0331504437      -34.9644823986       11.9606037353  MEMB      85              0.0000000000
     10429        85  POPE      H6S            14.4702650502      -35.6281221701       12.6562759668  MEMB      85              0.0000000000
     10430        85  POPE      C27            15.6004337578      -37.0085908199       11.4341140430  MEMB      85              0.0000000000
     10431        85  POPE      H7R            15.1614453249      -37.9166409668       11.9000055752  MEMB      85              0.0000000000
     10432        85  POPE      H7S            16.5974067441      -37.1608695136       10.9680914193  MEMB      85              0.0000000000
     10433        85  POPE      C28            14.6934317312      -36.5779246828       10.2768310523  MEMB      85              0.0000000000
     10434        85  POPE      H8R            15.0203985625      -35.7086103622        9.6671536321  MEMB      85              0.0000000000
     10435        85  POPE      H8S            13.6620273641      -36.4836867208       10.6788816351  MEMB      85              0.0000000000
     10436        85  POPE      C29            14.4217269478      -37.7288479372        9.2661495321  MEMB      85              0.0000000000
     10437        85  POPE      H91            13.5801422390      -38.3588821971        9.5898658394  MEMB      85              0.0000000000
     10438        85  POPE      C210           15.0982309623      -38.0821874314        8.1723465296  MEMB      85              0.0000000000
     10439        85  POPE      H101           14.7497306186      -38.9357181294        7.5723188758  MEMB      85              0.0000000000
     10440        85  POPE      C211           16.2593876713      -37.2598770331        7.7136676313  MEMB      85              0.0000000000
     10441        85  POPE      H11R           17.2067620282      -37.8381310615        7.7629132847  MEMB      85              0.0000000000
     10442        85  POPE      H11S           16.3530801221      -36.2795472824        8.2279600017  MEMB      85              0.0000000000
     10443        85  POPE      C212           16.0776785816      -36.7912737494        6.2309222958  MEMB      85              0.0000000000
     10444        85  POPE      H12R           15.1416169707      -36.1932708144        6.2085167435  MEMB      85              0.0000000000
     10445        85  POPE      H12S           15.9929534510      -37.7454079101        5.6680979280  MEMB      85              0.0000000000
     10446        85  POPE      C213           17.2535294561      -35.9635053288        5.6499099822  MEMB      85              0.0000000000
     10447        85  POPE      H13R           17.4851463768      -35.1021533790        6.3122906089  MEMB      85              0.0000000000
     10448        85  POPE      H13S           17.1201637554      -35.7398175910        4.5698645415  MEMB      85              0.0000000000
     10449        85  POPE      C214           18.5906871089      -36.7949075672        5.6918847587  MEMB      85              0.0000000000
     10450        85  POPE      H14R           18.3471753450      -37.8652962100        5.8630308590  MEMB      85              0.0000000000
     10451        85  POPE      H14S           19.2431065005      -36.4756017917        6.5325480418  MEMB      85              0.0000000000
     10452        85  POPE      C215           19.4383417850      -36.7039710269        4.4672108778  MEMB      85              0.0000000000
     10453        85  POPE      H15R           19.5898406754      -35.7054639284        4.0042286274  MEMB      85              0.0000000000
     10454        85  POPE      H15S           18.8187326028      -37.1363208942        3.6526685978  MEMB      85              0.0000000000
     10455        85  POPE      C216           20.7787956233      -37.4923362369        4.6695804445  MEMB      85              0.0000000000
     10456        85  POPE      H16R           20.6394028211      -38.5788554962        4.8549628226  MEMB      85              0.0000000000
     10457        85  POPE      H16S           21.2909380255      -37.0410497383        5.5461479697  MEMB      85              0.0000000000
     10458        85  POPE      C217           21.7885169668      -37.1757354848        3.5283610504  MEMB      85              0.0000000000
     10459        85  POPE      H17R           22.6574296586      -37.8246203740        3.7697332184  MEMB      85              0.0000000000
     10460        85  POPE      H17S           22.1043021489      -36.1113501119        3.5694072779  MEMB      85              0.0000000000
     10461        85  POPE      C218           21.3659884346      -37.7132779775        2.1200962725  MEMB      85              0.0000000000
     10462        85  POPE      H18R           20.4501583227      -37.1295724877        1.8858652229  MEMB      85              0.0000000000
     10463        85  POPE      H18S           21.1926627919      -38.8006091764        2.2683876735  MEMB      85              0.0000000000
     10464        85  POPE      H18T           22.2241686472      -37.5565916447        1.4321301704  MEMB      85              0.0000000000
     10465        85  POPE      C33            23.0962794009      -38.0362085224       11.5177513467  MEMB      85              0.0000000000
     10466        85  POPE      H3X            23.5355663906      -38.9593124307       11.0827494560  MEMB      85              0.0000000000
     10467        85  POPE      H3Y            23.6710706871      -37.1475481239       11.1797879504  MEMB      85              0.0000000000
     10468        85  POPE      C34            21.6638423410      -38.1160682886       11.1646027333  MEMB      85              0.0000000000
     10469        85  POPE      H4X            21.2329062997      -37.4248045664       11.9200955335  MEMB      85              0.0000000000
     10470        85  POPE      H4Y            21.3735023038      -39.1768133216       11.3222213913  MEMB      85              0.0000000000
     10471        85  POPE      C35            21.2892061308      -37.6728211194        9.6998007032  MEMB      85              0.0000000000
     10472        85  POPE      H5X            22.1505089723      -37.8322229481        9.0163754848  MEMB      85              0.0000000000
     10473        85  POPE      H5Y            21.1469810466      -36.5741169271        9.7831163555  MEMB      85              0.0000000000
     10474        85  POPE      C36            19.9599381343      -38.2692890179        9.2267709966  MEMB      85              0.0000000000
     10475        85  POPE      H6X            19.3813545417      -37.5849532894        8.5700776233  MEMB      85              0.0000000000
     10476        85  POPE      H6Y            19.1507824184      -38.3499914514        9.9837888875  MEMB      85              0.0000000000
     10477        85  POPE      C37            20.0110052500      -39.6945658586        8.7148659116  MEMB      85              0.0000000000
     10478        85  POPE      H7X            18.9757907318      -40.0598890417        8.5440123706  MEMB      85              0.0000000000
     10479        85  POPE      H7Y            20.5425429721      -40.2752061314        9.4988589116  MEMB      85              0.0000000000
     10480        85  POPE      C38            20.8449253427      -39.8590272068        7.4560174703  MEMB      85              0.0000000000
     10481        85  POPE      H8X            21.7947225801      -39.2826668435        7.4521580392  MEMB      85              0.0000000000
     10482        85  POPE      H8Y            20.2620058727      -39.5407322850        6.5653916842  MEMB      85              0.0000000000
     10483        85  POPE      C39            21.2224740849      -41.4015456723        7.3620778535  MEMB      85              0.0000000000
     10484        85  POPE      H9X            20.1914484051      -41.7785293182        7.1912269345  MEMB      85              0.0000000000
     10485        85  POPE      H9Y            21.6121296740      -41.8550792427        8.2984523697  MEMB      85              0.0000000000
     10486        85  POPE      C310           22.0848937797      -41.7178429481        6.1830900387  MEMB      85              0.0000000000
     10487        85  POPE      H10X           22.5157414818      -42.7349209867        6.3024370465  MEMB      85              0.0000000000
     10488        85  POPE      H10Y           22.9074453030      -40.9753386862        6.2631988092  MEMB      85              0.0000000000
     10489        85  POPE      C311           21.4775137615      -41.6104988216        4.7543878261  MEMB      85              0.0000000000
     10490        85  POPE      H11X           22.3413190562      -41.5382744935        4.0594456235  MEMB      85              0.0000000000
     10491        85  POPE      H11Y           21.0228810544      -40.6269662232        4.5088402723  MEMB      85              0.0000000000
     10492        85  POPE      C312           20.5581672618      -42.7798654836        4.3706868871  MEMB      85              0.0000000000
     10493        85  POPE      H12X           19.9889744610      -43.0683025829        5.2801615795  MEMB      85              0.0000000000
     10494        85  POPE      H12Y           21.2119822258      -43.6361056913        4.0992094198  MEMB      85              0.0000000000
     10495        85  POPE      C313           19.5293192467      -42.3677075214        3.2888285131  MEMB      85              0.0000000000
     10496        85  POPE      H13X           19.0837021682      -43.3087662692        2.9013323303  MEMB      85              0.0000000000
     10497        85  POPE      H13Y           20.0200123881      -41.8169585908        2.4580370154  MEMB      85              0.0000000000
     10498        85  POPE      C314           18.5082900724      -41.3967677421        3.7895673663  MEMB      85              0.0000000000
     10499        85  POPE      H14X           18.9699302599      -40.4256709569        4.0691746341  MEMB      85              0.0000000000
     10500        85  POPE      H14Y           18.1813273338      -41.7697909074        4.7836850277  MEMB      85              0.0000000000
     10501        85  POPE      C315           17.3355405901      -41.0234297766        2.7904451397  MEMB      85              0.0000000000
     10502        85  POPE      H15X           16.5189539471      -40.5284522693        3.3583397392  MEMB      85              0.0000000000
     10503        85  POPE      H15Y           17.0041678604      -42.0136152538        2.4109112390  MEMB      85              0.0000000000
     10504        85  POPE      C316           17.8423309678      -40.2305671048        1.5801266767  MEMB      85              0.0000000000
     10505        85  POPE      H16X           18.5997387683      -40.7845805131        0.9853811147  MEMB      85              0.0000000000
     10506        85  POPE      H16Y           18.0658631518      -39.1823285848        1.8726167464  MEMB      85              0.0000000000
     10507        85  POPE      H16Z           16.9175243616      -40.1580938184        0.9687330805  MEMB      85              0.0000000000
     10508        86  QMPE      N             -38.9201465642      -21.6103826956       19.7321113187  MEMB      86              0.0000000000
     10509        86  QMPE      HN1           -38.7068958531      -21.6036357451       18.7142318235  MEMB      86              0.0000000000
     10510        86  QMPE      HN2           -39.0241052534      -22.5373187881       20.1920917503  MEMB      86              0.0000000000
     10511        86  QMPE      HN3           -39.7544968860      -20.9996427797       19.8437193162  MEMB      86              0.0000000000
     10512        86  QMPE      C12           -37.7351074451      -20.9075469099       20.4320653422  MEMB      86              0.0000000000
     10513        86  QMPE      H12A          -37.8185728428      -20.7558223955       21.5294867817  MEMB      86              0.0000000000
     10514        86  QMPE      H12B          -37.5451447876      -19.9841936128       19.8441418779  MEMB      86              0.0000000000
     10515        86  QMPE      C11           -36.4647580076      -21.7657318133       20.3857390242  MEMB      86              0.0000000000
     10516        86  QMPE      H11A          -36.6489464608      -22.7627613869       20.8399719593  MEMB      86              0.0000000000
     10517        86  QMPE      H11B          -35.6437891157      -21.2436385130       20.9221620677  MEMB      86              0.0000000000
     10518        86  QMPE      P             -34.8701231100      -21.5715765104       18.2998605813  MEMB      86              0.0000000000
     10519        86  QMPE      O13           -34.1016797954      -22.6600744392       17.6347014689  MEMB      86              0.0000000000
     10520        86  QMPE      O14           -34.0196967850      -20.8143943738       19.1934026458  MEMB      86              0.0000000000
     10521        86  QMPE      O11           -35.6819365289      -20.7161135837       17.2305983080  MEMB      86              0.0000000000
     10522        86  QMPE      O12           -36.1536771993      -22.2088831805       19.0915213078  MEMB      86              0.0000000000
     10523        86  QMPE      C1            -36.6511699387      -21.2244796977       16.3860725866  MEMB      86              0.0000000000
     10524        86  QMPE      HA            -37.6803286676      -21.1863637099       16.8028468343  MEMB      86              0.0000000000
     10525        86  QMPE      HB            -36.5073767221      -22.3172233844       16.2462312822  MEMB      86              0.0000000000
     10526        86  QMPE      C2            -36.5210435176      -20.5921261908       14.9311203246  MEMB      86              0.0000000000
     10527        86  QMPE      HS            -37.0827273830      -21.3116901619       14.2978275160  MEMB      86              0.0000000000
     10528        86  QMPE      O21           -35.1568813328      -20.5472998296       14.5603035030  MEMB      86              0.0000000000
     10529        86  QMPE      C21           -34.5267906413      -21.6436702646       14.1516153883  MEMB      86              0.0000000000
     10530        86  QMPE      O22           -35.0716881261      -22.5789787738       13.5930615712  MEMB      86              0.0000000000
     10531        86  QMPE      C22           -33.0279678033      -21.4108033670       14.5287246018  MEMB      86              0.0000000000
     10532        86  QMPE      H2R           -33.0837652867      -20.9787614953       15.5507557553  MEMB      86              0.0000000000
     10533        86  QMPE      H2S           -32.5763948861      -20.5228703774       14.0368121730  MEMB      86              0.0000000000
     10534        86  QMPE      C3            -36.9996963643      -19.0834540097       14.8608381698  MEMB      86              0.0000000000
     10535        86  QMPE      HX            -36.3955624184      -18.3682975366       15.4590811118  MEMB      86              0.0000000000
     10536        86  QMPE      HY            -37.9357259649      -19.0926099090       15.4592408519  MEMB      86              0.0000000000
     10537        86  QMPE      O31           -37.3245949715      -18.6503715455       13.5731545510  MEMB      86              0.0000000000
     10538        86  QMPE      C31           -36.2759262879      -18.2677178717       12.8410992004  MEMB      86              0.0000000000
     10539        86  QMPE      O32           -35.1844938225      -18.0419416810       13.2755475731  MEMB      86              0.0000000000
     10540        86  QMPE      C32           -36.5154233829      -18.1525052344       11.4250118214  MEMB      86              0.0000000000
     10541        86  QMPE      H2X           -37.6104538356      -18.1413323814       11.2376505567  MEMB      86              0.0000000000
     10542        86  QMPE      H2Y           -36.1725634630      -17.1515064920       11.0862361628  MEMB      86              0.0000000000
     10543        86  QMPE      C23           -32.0924736537      -22.6316855563       14.3104250341  MEMB      86              0.0000000000
     10544        86  QMPE      H3R           -32.6782892056      -23.4120613156       14.8416075141  MEMB      86              0.0000000000
     10545        86  QMPE      H3S           -31.0732419757      -22.4482107507       14.7126994360  MEMB      86              0.0000000000
     10546        86  QMPE      C24           -31.7794717493      -23.1254217855       12.8919262570  MEMB      86              0.0000000000
     10547        86  QMPE      H4R           -32.6206853265      -23.1607675310       12.1670596602  MEMB      86              0.0000000000
     10548        86  QMPE      H4S           -31.3062954593      -24.1287868040       12.9526193607  MEMB      86              0.0000000000
     10549        86  QMPE      C25           -30.7077835724      -22.2706878298       12.2463035413  MEMB      86              0.0000000000
     10550        86  QMPE      H5R           -29.8481752038      -22.1679588468       12.9426091878  MEMB      86              0.0000000000
     10551        86  QMPE      H5S           -31.1313207221      -21.2453624922       12.1859269111  MEMB      86              0.0000000000
     10552        86  QMPE      C26           -30.4542033536      -22.6495089461       10.7962207744  MEMB      86              0.0000000000
     10553        86  QMPE      H6R           -30.0593109408      -23.6868541388       10.7483063792  MEMB      86              0.0000000000
     10554        86  QMPE      H6S           -29.6596348862      -21.9580920679       10.4427743946  MEMB      86              0.0000000000
     10555        86  QMPE      C27           -31.6405479247      -22.7094312415        9.8613768132  MEMB      86              0.0000000000
     10556        86  QMPE      H7R           -32.2365708064      -21.8149571028       10.1424346160  MEMB      86              0.0000000000
     10557        86  QMPE      H7S           -32.2814029118      -23.6115088188        9.9607849054  MEMB      86              0.0000000000
     10558        86  QMPE      C28           -31.3278403908      -22.4894990709        8.3584966219  MEMB      86              0.0000000000
     10559        86  QMPE      H8R           -30.7647609624      -21.5332672467        8.3047999904  MEMB      86              0.0000000000
     10560        86  QMPE      H8S           -32.2668756409      -22.4122619877        7.7697960013  MEMB      86              0.0000000000
     10561        86  QMPE      C29           -30.6191527299      -23.6035775179        7.7092171489  MEMB      86              0.0000000000
     10562        86  QMPE      H9R           -30.8880688347      -24.6206669636        8.0663369159  MEMB      86              0.0000000000
     10563        86  QMPE      C217          -29.1692401497      -23.3979848840        7.3351527571  MEMB      86              0.0000000000
     10564        86  QMPE      H17R          -28.8023921428      -22.3815042373        7.4064175255  MEMB      86              0.0000000000
     10565        86  QMPE      H17S          -28.5278082279      -24.2658381052        7.4261720060  MEMB      86              0.0000000000
     10566        86  QMPE      C210          -30.2607571545      -23.4560483039        6.2867684339  MEMB      86              0.0000000000
     10567        86  QMPE      H10R          -30.3915754671      -24.4166948393        5.7442141919  MEMB      86              0.0000000000
     10568        86  QMPE      C211          -30.6657311998      -22.1676631920        5.5132411268  MEMB      86              0.0000000000
     10569        86  QMPE      H11R          -31.7163678872      -21.8643745487        5.7094555522  MEMB      86              0.0000000000
     10570        86  QMPE      H11S          -29.9985575478      -21.3519605193        5.8651354056  MEMB      86              0.0000000000
     10571        86  QMPE      C212          -30.6345358287      -22.4869441653        3.9752566341  MEMB      86              0.0000000000
     10572        86  QMPE      H12R          -31.2347497090      -23.3744892042        3.6814395109  MEMB      86              0.0000000000
     10573        86  QMPE      H12S          -29.5760188731      -22.8137712099        3.8913125626  MEMB      86              0.0000000000
     10574        86  QMPE      C213          -31.0409377715      -21.3277243025        3.0574783908  MEMB      86              0.0000000000
     10575        86  QMPE      H13R          -31.7757289099      -20.6089432758        3.4790892189  MEMB      86              0.0000000000
     10576        86  QMPE      H13S          -31.6379704209      -21.7992170996        2.2478060577  MEMB      86              0.0000000000
     10577        86  QMPE      C214          -29.9022177738      -20.6166262182        2.2803069608  MEMB      86              0.0000000000
     10578        86  QMPE      H14R          -29.0743459459      -21.3314470795        2.0854213433  MEMB      86              0.0000000000
     10579        86  QMPE      H14S          -29.6145164949      -19.6895885299        2.8208160043  MEMB      86              0.0000000000
     10580        86  QMPE      C215          -30.2505802176      -20.0823097051        0.7950338031  MEMB      86              0.0000000000
     10581        86  QMPE      H15R          -30.5840293477      -20.9463215630        0.1813435496  MEMB      86              0.0000000000
     10582        86  QMPE      H15S          -29.3701472683      -19.6779920319        0.2512621450  MEMB      86              0.0000000000
     10583        86  QMPE      C216          -31.2451014504      -18.9173423888        0.6844349657  MEMB      86              0.0000000000
     10584        86  QMPE      H16R          -32.2194020977      -19.1602365000        1.1598960451  MEMB      86              0.0000000000
     10585        86  QMPE      H16S          -31.4769570330      -18.7598173354       -0.3906227487  MEMB      86              0.0000000000
     10586        86  QMPE      H16T          -30.8829907197      -17.9565812460        1.1088586658  MEMB      86              0.0000000000
     10587        86  QMPE      C33           -35.7790201019      -19.2147643469       10.6195847270  MEMB      86              0.0000000000
     10588        86  QMPE      H3X           -34.7327259164      -19.2929049309       10.9849386687  MEMB      86              0.0000000000
     10589        86  QMPE      H3Y           -35.8838671674      -18.9770137369        9.5393987158  MEMB      86              0.0000000000
     10590        86  QMPE      C34           -36.4044830021      -20.6543724451       10.8492320328  MEMB      86              0.0000000000
     10591        86  QMPE      H4X           -37.4538209606      -20.6604419297       10.4843017552  MEMB      86              0.0000000000
     10592        86  QMPE      H4Y           -36.3470163571      -20.9333409355       11.9231016446  MEMB      86              0.0000000000
     10593        86  QMPE      C35           -35.5298673424      -21.8257423383       10.2943641526  MEMB      86              0.0000000000
     10594        86  QMPE      H5X           -36.2234719256      -22.6917572326       10.3513911501  MEMB      86              0.0000000000
     10595        86  QMPE      H5Y           -34.5781447539      -22.0425474062       10.8249682431  MEMB      86              0.0000000000
     10596        86  QMPE      C36           -35.0790473901      -21.6536280579        8.8631907597  MEMB      86              0.0000000000
     10597        86  QMPE      H6X           -34.4831349458      -22.5563632357        8.6096592358  MEMB      86              0.0000000000
     10598        86  QMPE      H6Y           -34.4146104316      -20.7723003780        8.7362810845  MEMB      86              0.0000000000
     10599        86  QMPE      C37           -36.1763835890      -21.5158030081        7.7855204895  MEMB      86              0.0000000000
     10600        86  QMPE      H7X           -37.1073011185      -22.1014555000        7.9427624975  MEMB      86              0.0000000000
     10601        86  QMPE      H7Y           -36.4866730435      -20.4494438628        7.8158421750  MEMB      86              0.0000000000
     10602        86  QMPE      C38           -35.5694988965      -21.6803814798        6.4210737906  MEMB      86              0.0000000000
     10603        86  QMPE      H8X           -36.1595377540      -21.2218270054        5.5989405219  MEMB      86              0.0000000000
     10604        86  QMPE      H8Y           -34.6390249802      -21.0777596737        6.3476831217  MEMB      86              0.0000000000
     10605        86  QMPE      C39           -35.2751711988      -23.1025813382        5.9847719817  MEMB      86              0.0000000000
     10606        86  QMPE      H9X           -36.2251754544      -23.6757823922        6.0418120297  MEMB      86              0.0000000000
     10607        86  QMPE      H9Y           -34.4134963250      -23.4319514513        6.6039266857  MEMB      86              0.0000000000
     10608        86  QMPE      C310          -34.8135765024      -23.1920856441        4.5216631276  MEMB      86              0.0000000000
     10609        86  QMPE      H10X          -34.4336444765      -24.2220951554        4.3512128801  MEMB      86              0.0000000000
     10610        86  QMPE      H10Y          -33.9483765124      -22.5406470442        4.2739180966  MEMB      86              0.0000000000
     10611        86  QMPE      C311          -36.0275560282      -22.9473245790        3.5737743163  MEMB      86              0.0000000000
     10612        86  QMPE      H11X          -36.4832097264      -21.9872192655        3.8976558663  MEMB      86              0.0000000000
     10613        86  QMPE      H11Y          -36.7783307628      -23.7392909571        3.7822167428  MEMB      86              0.0000000000
     10614        86  QMPE      C312          -35.6639139727      -22.9571227734        2.0853439400  MEMB      86              0.0000000000
     10615        86  QMPE      H12X          -36.6439579853      -22.7286169752        1.6145787850  MEMB      86              0.0000000000
     10616        86  QMPE      H12Y          -35.2792134713      -23.9124495862        1.6685986708  MEMB      86              0.0000000000
     10617        86  QMPE      C313          -34.7396148805      -21.7441796110        1.7679375216  MEMB      86              0.0000000000
     10618        86  QMPE      H13X          -34.9570974721      -20.8596286993        2.4040126398  MEMB      86              0.0000000000
     10619        86  QMPE      H13Y          -33.6690312927      -22.0395748090        1.7981737937  MEMB      86              0.0000000000
     10620        86  QMPE      C314          -34.9571462891      -21.1673573566        0.2964604579  MEMB      86              0.0000000000
     10621        86  QMPE      H14X          -34.0624819908      -20.5525344414        0.0600510821  MEMB      86              0.0000000000
     10622        86  QMPE      H14Y          -35.8873520066      -20.6488842586        0.6130429573  MEMB      86              0.0000000000
     10623        86  QMPE      C315          -35.0638295277      -22.2056885395       -0.8564126647  MEMB      86              0.0000000000
     10624        86  QMPE      H15X          -34.1819039754      -22.8772585625       -0.9307165166  MEMB      86              0.0000000000
     10625        86  QMPE      H15Y          -35.8724302837      -22.9453176810       -0.6735614042  MEMB      86              0.0000000000
     10626        86  QMPE      H15Z          -35.2664640194      -21.6565484299       -1.8007140542  MEMB      86              0.0000000000
     10627        87  PMPE      N             -27.5146293650      -29.8359910680       20.3149539090  MEMB      87              0.0000000000
     10628        87  PMPE      HN1           -28.4136848538      -30.0855331675       20.7743316477  MEMB      87              0.0000000000
     10629        87  PMPE      HN2           -27.1357573640      -28.9606980188       20.7295842132  MEMB      87              0.0000000000
     10630        87  PMPE      HN3           -27.6824544415      -29.5918701966       19.3180388387  MEMB      87              0.0000000000
     10631        87  PMPE      C12           -26.6676208205      -31.0817398408       20.4023923015  MEMB      87              0.0000000000
     10632        87  PMPE      H12A          -26.2326175154      -30.9894163165       21.4205128172  MEMB      87              0.0000000000
     10633        87  PMPE      H12B          -25.8567880145      -31.1541128365       19.6463279453  MEMB      87              0.0000000000
     10634        87  PMPE      C11           -27.4886097534      -32.4038075291       20.3883056936  MEMB      87              0.0000000000
     10635        87  PMPE      H11A          -28.2930724155      -32.1988991948       21.1266641635  MEMB      87              0.0000000000
     10636        87  PMPE      H11B          -26.9344807666      -33.2856279814       20.7751580758  MEMB      87              0.0000000000
     10637        87  PMPE      P             -27.4425459474      -33.6148455357       18.2111141018  MEMB      87              0.0000000000
     10638        87  PMPE      O13           -27.7029476647      -34.9646982924       18.5738509800  MEMB      87              0.0000000000
     10639        87  PMPE      O14           -25.9779398432      -33.3236603267       18.1388754290  MEMB      87              0.0000000000
     10640        87  PMPE      O11           -28.1372475946      -33.3084452670       16.8062263347  MEMB      87              0.0000000000
     10641        87  PMPE      O12           -28.2171393028      -32.5441049371       19.1642812519  MEMB      87              0.0000000000
     10642        87  PMPE      C1            -29.5733083209      -33.1456159966       16.6961100571  MEMB      87              0.0000000000
     10643        87  PMPE      HA            -29.7935619700      -32.1166518236       17.0525396496  MEMB      87              0.0000000000
     10644        87  PMPE      HB            -30.0323628429      -33.9976438007       17.2416726605  MEMB      87              0.0000000000
     10645        87  PMPE      C2            -30.0596941817      -33.2776768517       15.2228229296  MEMB      87              0.0000000000
     10646        87  PMPE      HS            -31.1245182318      -33.5901777347       15.2758687282  MEMB      87              0.0000000000
     10647        87  PMPE      O21           -29.2901404246      -34.0737726470       14.3228298808  MEMB      87              0.0000000000
     10648        87  PMPE      C21           -29.5438335100      -35.4265273899       14.5670158983  MEMB      87              0.0000000000
     10649        87  PMPE      O22           -30.3542221793      -35.9001458389       15.3007395964  MEMB      87              0.0000000000
     10650        87  PMPE      C22           -28.5694148026      -36.2386243412       13.7184548958  MEMB      87              0.0000000000
     10651        87  PMPE      H2R           -28.5769946913      -37.3222032770       13.9636494443  MEMB      87              0.0000000000
     10652        87  PMPE      H2S           -27.5403824685      -35.8319561902       13.8186268238  MEMB      87              0.0000000000
     10653        87  PMPE      C3            -30.1512360919      -31.8917108439       14.5205444738  MEMB      87              0.0000000000
     10654        87  PMPE      HX            -29.1526143179      -31.4087181039       14.4589505971  MEMB      87              0.0000000000
     10655        87  PMPE      HY            -30.7057443170      -31.2317430548       15.2214609538  MEMB      87              0.0000000000
     10656        87  PMPE      O31           -30.7694227441      -32.0191440949       13.1864748205  MEMB      87              0.0000000000
     10657        87  PMPE      C31           -29.9880229386      -32.1785637021       12.1291702012  MEMB      87              0.0000000000
     10658        87  PMPE      O32           -28.8002976396      -32.2306631067       12.1392965880  MEMB      87              0.0000000000
     10659        87  PMPE      C32           -30.9117651568      -32.0747306037       10.8818177060  MEMB      87              0.0000000000
     10660        87  PMPE      H2X           -31.9337811299      -32.3095445904       11.2487881117  MEMB      87              0.0000000000
     10661        87  PMPE      H2Y           -30.6381510860      -32.8921598345       10.1809145441  MEMB      87              0.0000000000
     10662        87  PMPE      C23           -28.8237781760      -36.1961901978       12.2533690657  MEMB      87              0.0000000000
     10663        87  PMPE      H3R           -29.4922199383      -35.3172551677       12.1309774815  MEMB      87              0.0000000000
     10664        87  PMPE      H3S           -29.2994543502      -37.0904977726       11.7970056921  MEMB      87              0.0000000000
     10665        87  PMPE      C24           -27.6347378691      -35.8683338376       11.3171782026  MEMB      87              0.0000000000
     10666        87  PMPE      H4R           -26.8570837730      -36.6423250847       11.4918578446  MEMB      87              0.0000000000
     10667        87  PMPE      H4S           -27.1818853734      -34.9469840200       11.7418665938  MEMB      87              0.0000000000
     10668        87  PMPE      C25           -27.8235142899      -35.8726440509        9.8558382766  MEMB      87              0.0000000000
     10669        87  PMPE      H5R           -28.7431139575      -35.3061238187        9.5956223414  MEMB      87              0.0000000000
     10670        87  PMPE      H5S           -27.9162939874      -36.8829724933        9.4031252915  MEMB      87              0.0000000000
     10671        87  PMPE      C26           -26.6786820957      -35.3349687321        8.9587586177  MEMB      87              0.0000000000
     10672        87  PMPE      H6R           -25.9465438812      -36.1652498902        9.0532466955  MEMB      87              0.0000000000
     10673        87  PMPE      H6S           -26.3148084010      -34.3366708883        9.2832863847  MEMB      87              0.0000000000
     10674        87  PMPE      C27           -27.0401342606      -35.2206315138        7.4769716442  MEMB      87              0.0000000000
     10675        87  PMPE      H7R           -28.0633879150      -34.8025042078        7.3654262534  MEMB      87              0.0000000000
     10676        87  PMPE      H7S           -27.0681345206      -36.2554928404        7.0737354057  MEMB      87              0.0000000000
     10677        87  PMPE      C28           -26.1101253028      -34.2808692442        6.7050962224  MEMB      87              0.0000000000
     10678        87  PMPE      H8R           -26.2263383355      -33.2114760646        6.9829695337  MEMB      87              0.0000000000
     10679        87  PMPE      H8S           -26.4604139018      -34.2984972986        5.6509103217  MEMB      87              0.0000000000
     10680        87  PMPE      C29           -24.6697599988      -34.7582046789        6.4577388445  MEMB      87              0.0000000000
     10681        87  PMPE      H9R           -24.4630941563      -35.8115278698        6.1711728795  MEMB      87              0.0000000000
     10682        87  PMPE      C217          -23.5305085506      -34.1875583011        7.3602436420  MEMB      87              0.0000000000
     10683        87  PMPE      H17R          -22.8991948693      -35.0447340881        7.5591948471  MEMB      87              0.0000000000
     10684        87  PMPE      H17S          -24.0247529299      -33.4677533193        8.0009407049  MEMB      87              0.0000000000
     10685        87  PMPE      C210          -23.5829532616      -33.9485486980        5.8877738804  MEMB      87              0.0000000000
     10686        87  PMPE      H10R          -22.9284612502      -34.5559049530        5.2266535228  MEMB      87              0.0000000000
     10687        87  PMPE      C211          -23.7525750023      -32.4896979028        5.4387054993  MEMB      87              0.0000000000
     10688        87  PMPE      H11R          -22.7515607320      -32.0084823741        5.4118175526  MEMB      87              0.0000000000
     10689        87  PMPE      H11S          -24.1871078685      -31.8610192210        6.2450958091  MEMB      87              0.0000000000
     10690        87  PMPE      C212          -24.4449926864      -32.2450293523        4.0844027442  MEMB      87              0.0000000000
     10691        87  PMPE      H12R          -24.2616284150      -31.1613587418        3.9220555968  MEMB      87              0.0000000000
     10692        87  PMPE      H12S          -25.5389423192      -32.4376454558        4.1066340452  MEMB      87              0.0000000000
     10693        87  PMPE      C213          -23.8887935097      -33.0739261927        2.8756759248  MEMB      87              0.0000000000
     10694        87  PMPE      H13R          -23.8361898899      -34.1753655126        3.0112648839  MEMB      87              0.0000000000
     10695        87  PMPE      H13S          -22.8021397003      -32.9709941625        2.6685291411  MEMB      87              0.0000000000
     10696        87  PMPE      C214          -24.6542849319      -32.8797869060        1.5728614332  MEMB      87              0.0000000000
     10697        87  PMPE      H14R          -24.6866226161      -31.8029038950        1.3015720595  MEMB      87              0.0000000000
     10698        87  PMPE      H14S          -25.6933981450      -33.2176758199        1.7738487585  MEMB      87              0.0000000000
     10699        87  PMPE      C215          -23.9803204422      -33.5819784105        0.4111240954  MEMB      87              0.0000000000
     10700        87  PMPE      H15R          -23.9745535978      -34.6698366003        0.6366282152  MEMB      87              0.0000000000
     10701        87  PMPE      H15S          -22.9097238072      -33.3052862644        0.3034878014  MEMB      87              0.0000000000
     10702        87  PMPE      C216          -24.6158519170      -33.2873988692       -0.8897478584  MEMB      87              0.0000000000
     10703        87  PMPE      H16R          -25.6969883761      -33.5420848141       -0.9142471119  MEMB      87              0.0000000000
     10704        87  PMPE      H16S          -24.4449904129      -32.2224099936       -1.1560673088  MEMB      87              0.0000000000
     10705        87  PMPE      H16T          -24.1283135457      -33.8636017795       -1.7049875210  MEMB      87              0.0000000000
     10706        87  PMPE      C33           -30.9551110106      -30.6706512907       10.4517947925  MEMB      87              0.0000000000
     10707        87  PMPE      H3X           -31.2968774713      -30.0079289340       11.2753941647  MEMB      87              0.0000000000
     10708        87  PMPE      H3Y           -31.6437634947      -30.6182497038        9.5815458143  MEMB      87              0.0000000000
     10709        87  PMPE      C34           -29.6212798459      -30.1490809208        9.8792736044  MEMB      87              0.0000000000
     10710        87  PMPE      H4X           -28.9234785285      -30.0740497030       10.7405314648  MEMB      87              0.0000000000
     10711        87  PMPE      H4Y           -29.8548816744      -29.1810294807        9.3867012432  MEMB      87              0.0000000000
     10712        87  PMPE      C35           -28.8478248240      -31.0282856648        8.8272564691  MEMB      87              0.0000000000
     10713        87  PMPE      H5X           -28.9747508138      -32.0924599267        9.1200772679  MEMB      87              0.0000000000
     10714        87  PMPE      H5Y           -27.7724486633      -30.7556061836        8.7678176222  MEMB      87              0.0000000000
     10715        87  PMPE      C36           -29.2279272383      -30.8990435708        7.3393164821  MEMB      87              0.0000000000
     10716        87  PMPE      H6X           -29.4401545752      -29.8319059008        7.1145988876  MEMB      87              0.0000000000
     10717        87  PMPE      H6Y           -30.2466585600      -31.3418544483        7.3599523446  MEMB      87              0.0000000000
     10718        87  PMPE      C37           -28.2643325414      -31.5963473337        6.3225639295  MEMB      87              0.0000000000
     10719        87  PMPE      H7X           -28.1212765756      -32.6889349367        6.4643681218  MEMB      87              0.0000000000
     10720        87  PMPE      H7Y           -27.2596976000      -31.1631353884        6.5158433408  MEMB      87              0.0000000000
     10721        87  PMPE      C38           -28.4546685744      -31.2539832008        4.8223645577  MEMB      87              0.0000000000
     10722        87  PMPE      H8X           -27.5294849505      -31.2990025226        4.2089079616  MEMB      87              0.0000000000
     10723        87  PMPE      H8Y           -28.9304192044      -30.2787774875        4.5837096646  MEMB      87              0.0000000000
     10724        87  PMPE      C39           -29.3112253155      -32.3919190005        4.1680382643  MEMB      87              0.0000000000
     10725        87  PMPE      H9X           -30.3794080020      -32.1590671475        4.3657412206  MEMB      87              0.0000000000
     10726        87  PMPE      H9Y           -29.0943837954      -33.3971729072        4.5884733475  MEMB      87              0.0000000000
     10727        87  PMPE      C310          -29.1544771992      -32.3310364408        2.6181930006  MEMB      87              0.0000000000
     10728        87  PMPE      H10X          -28.1174073166      -32.6905940623        2.4463635351  MEMB      87              0.0000000000
     10729        87  PMPE      H10Y          -29.3902515190      -31.2632632699        2.4217439257  MEMB      87              0.0000000000
     10730        87  PMPE      C311          -30.1681033336      -33.1235119536        1.8200764964  MEMB      87              0.0000000000
     10731        87  PMPE      H11X          -31.2410017919      -32.8634864005        1.9449609869  MEMB      87              0.0000000000
     10732        87  PMPE      H11Y          -30.1683060445      -34.1772876768        2.1720383067  MEMB      87              0.0000000000
     10733        87  PMPE      C312          -29.7926285419      -33.2034824066        0.3730425834  MEMB      87              0.0000000000
     10734        87  PMPE      H12X          -30.5924179544      -33.6307381313       -0.2689153223  MEMB      87              0.0000000000
     10735        87  PMPE      H12Y          -28.9810097429      -33.9611890919        0.3346184483  MEMB      87              0.0000000000
     10736        87  PMPE      C313          -29.1905285464      -31.9176810130       -0.1824412118  MEMB      87              0.0000000000
     10737        87  PMPE      H13X          -28.8179807119      -32.1235238670       -1.2086756245  MEMB      87              0.0000000000
     10738        87  PMPE      H13Y          -28.2413584767      -31.5964098423        0.2973313688  MEMB      87              0.0000000000
     10739        87  PMPE      C314          -30.2509067695      -30.8132243052       -0.3437319616  MEMB      87              0.0000000000
     10740        87  PMPE      H14X          -30.4940596924      -30.3594416500        0.6407874298  MEMB      87              0.0000000000
     10741        87  PMPE      H14Y          -31.1746577645      -31.2503220309       -0.7795650929  MEMB      87              0.0000000000
     10742        87  PMPE      C315          -29.7996419265      -29.7698999047       -1.3573827385  MEMB      87              0.0000000000
     10743        87  PMPE      H15X          -30.5343415386      -28.9396149849       -1.4292458577  MEMB      87              0.0000000000
     10744        87  PMPE      H15Y          -29.6225303588      -30.2339741326       -2.3511581390  MEMB      87              0.0000000000
     10745        87  PMPE      C316          -28.4956706106      -29.1597294856       -0.9983371226  MEMB      87              0.0000000000
     10746        87  PMPE      H16X          -28.3186442248      -28.2404818961       -1.5966392846  MEMB      87              0.0000000000
     10747        87  PMPE      H16Y          -27.6874225067      -29.8278929055       -1.3652336685  MEMB      87              0.0000000000
     10748        87  PMPE      H16Z          -28.3540441986      -28.8396843504        0.0560992826  MEMB      87              0.0000000000
     10749        88  PMPE      N              29.3676620478       31.2094440960       18.0381549941  MEMB      88              0.0000000000
     10750        88  PMPE      HN1            28.7060647426       31.8979027536       17.6259490396  MEMB      88              0.0000000000
     10751        88  PMPE      HN2            29.9903058460       31.7831119566       18.6421582607  MEMB      88              0.0000000000
     10752        88  PMPE      HN3            29.7983761799       30.7048356152       17.2372458556  MEMB      88              0.0000000000
     10753        88  PMPE      C12            28.6119780463       30.1480462430       18.8428054151  MEMB      88              0.0000000000
     10754        88  PMPE      H12A           29.4257854303       29.5158476328       19.2579722965  MEMB      88              0.0000000000
     10755        88  PMPE      H12B           28.0820333448       29.4900478201       18.1213364058  MEMB      88              0.0000000000
     10756        88  PMPE      C11            27.5943946747       30.7151087708       19.9061385329  MEMB      88              0.0000000000
     10757        88  PMPE      H11A           28.2930629143       31.2908426041       20.5501217036  MEMB      88              0.0000000000
     10758        88  PMPE      H11B           27.1694283589       29.8049988180       20.3809272400  MEMB      88              0.0000000000
     10759        88  PMPE      P              26.6468283057       33.0819303065       19.1221537903  MEMB      88              0.0000000000
     10760        88  PMPE      O13            27.9371627196       33.6506858600       19.5757907055  MEMB      88              0.0000000000
     10761        88  PMPE      O14            25.4292542400       33.7622408606       19.6109390612  MEMB      88              0.0000000000
     10762        88  PMPE      O11            26.6977104951       33.0925055934       17.5297698069  MEMB      88              0.0000000000
     10763        88  PMPE      O12            26.5751062741       31.5448542712       19.3742476959  MEMB      88              0.0000000000
     10764        88  PMPE      C1             25.6819105700       32.5069322059       16.8171104749  MEMB      88              0.0000000000
     10765        88  PMPE      HA             24.6480732743       32.7075860908       17.1710025722  MEMB      88              0.0000000000
     10766        88  PMPE      HB             25.7761996383       31.4101365185       16.9670095222  MEMB      88              0.0000000000
     10767        88  PMPE      C2             25.6867649821       32.8527082459       15.2969788943  MEMB      88              0.0000000000
     10768        88  PMPE      HS             25.0869840991       32.0492324477       14.8184283203  MEMB      88              0.0000000000
     10769        88  PMPE      O21            27.0093261238       32.8111313308       14.6175867475  MEMB      88              0.0000000000
     10770        88  PMPE      C21            27.7216199593       31.7123504335       14.8940130987  MEMB      88              0.0000000000
     10771        88  PMPE      O22            27.2736489954       30.6582560067       15.3649491381  MEMB      88              0.0000000000
     10772        88  PMPE      C22            29.1640098907       31.9744269953       14.5578027028  MEMB      88              0.0000000000
     10773        88  PMPE      H2R            29.7020407116       32.4276123979       15.4177252652  MEMB      88              0.0000000000
     10774        88  PMPE      H2S            29.2840537610       32.8321676351       13.8619639348  MEMB      88              0.0000000000
     10775        88  PMPE      C3             25.1194982768       34.2521264965       15.0600762914  MEMB      88              0.0000000000
     10776        88  PMPE      HX             25.5619171058       34.9635341286       15.7897925411  MEMB      88              0.0000000000
     10777        88  PMPE      HY             24.0261140168       34.2336015887       15.2562615697  MEMB      88              0.0000000000
     10778        88  PMPE      O31            25.4412556607       34.5905475971       13.6703984200  MEMB      88              0.0000000000
     10779        88  PMPE      C31            24.7625207006       33.9653096772       12.7250729473  MEMB      88              0.0000000000
     10780        88  PMPE      O32            23.7573017534       33.3223620547       12.8524124500  MEMB      88              0.0000000000
     10781        88  PMPE      C32            25.4248018179       34.3133798811       11.3744510402  MEMB      88              0.0000000000
     10782        88  PMPE      H2X            25.1892060609       33.4828735206       10.6751119215  MEMB      88              0.0000000000
     10783        88  PMPE      H2Y            26.5326077792       34.2569443918       11.4369191886  MEMB      88              0.0000000000
     10784        88  PMPE      C23            29.9659934455       30.6853343171       14.2313793710  MEMB      88              0.0000000000
     10785        88  PMPE      H3R            29.7794256496       29.8986054219       14.9933312235  MEMB      88              0.0000000000
     10786        88  PMPE      H3S            31.0525309300       30.8994708582       14.1424821063  MEMB      88              0.0000000000
     10787        88  PMPE      C24            29.6090375078       30.0912732793       12.8048325224  MEMB      88              0.0000000000
     10788        88  PMPE      H4R            28.5869027016       29.6599639023       12.7453864645  MEMB      88              0.0000000000
     10789        88  PMPE      H4S            30.3600794834       29.2841818977       12.6674995746  MEMB      88              0.0000000000
     10790        88  PMPE      C25            29.6220316981       31.1796779514       11.7613702451  MEMB      88              0.0000000000
     10791        88  PMPE      H5R            30.5349297951       31.7841559289       11.9499023742  MEMB      88              0.0000000000
     10792        88  PMPE      H5S            28.8115844262       31.9285773152       11.8903901796  MEMB      88              0.0000000000
     10793        88  PMPE      C26            29.5245801042       30.6839408070       10.3353744397  MEMB      88              0.0000000000
     10794        88  PMPE      H6R            30.3983822814       30.0548640358       10.0614163690  MEMB      88              0.0000000000
     10795        88  PMPE      H6S            29.6184218141       31.5511906337        9.6473396552  MEMB      88              0.0000000000
     10796        88  PMPE      C27            28.2128282141       30.0903326408        9.9241736663  MEMB      88              0.0000000000
     10797        88  PMPE      H7R            27.3772859981       30.7289875584       10.2823773555  MEMB      88              0.0000000000
     10798        88  PMPE      H7S            28.0668238118       29.0523550252       10.2924202997  MEMB      88              0.0000000000
     10799        88  PMPE      C28            28.1425904912       29.9213211059        8.3802469505  MEMB      88              0.0000000000
     10800        88  PMPE      H8R            28.5838382120       30.8038189932        7.8695429104  MEMB      88              0.0000000000
     10801        88  PMPE      H8S            27.0690460483       29.7981068447        8.1220960511  MEMB      88              0.0000000000
     10802        88  PMPE      C29            28.6993298481       28.6659433821        7.9125950792  MEMB      88              0.0000000000
     10803        88  PMPE      H9R            28.2868375145       27.7119904471        8.3052085803  MEMB      88              0.0000000000
     10804        88  PMPE      C217           30.1283876388       28.7107873639        7.3637920169  MEMB      88              0.0000000000
     10805        88  PMPE      H17R           30.5326871063       27.7678091536        7.7105238589  MEMB      88              0.0000000000
     10806        88  PMPE      H17S           30.6144984186       29.6769340347        7.4198821356  MEMB      88              0.0000000000
     10807        88  PMPE      C210           28.9168184091       28.5402570366        6.3643079167  MEMB      88              0.0000000000
     10808        88  PMPE      H10R           28.9912102601       27.5568051683        5.8528311351  MEMB      88              0.0000000000
     10809        88  PMPE      C211           28.4824530310       29.6743170141        5.4402653181  MEMB      88              0.0000000000
     10810        88  PMPE      H11R           28.9559198734       29.4040720574        4.4722163680  MEMB      88              0.0000000000
     10811        88  PMPE      H11S           28.8160995475       30.6421218103        5.8719536877  MEMB      88              0.0000000000
     10812        88  PMPE      C212           26.9379501399       29.6271539784        5.2033028886  MEMB      88              0.0000000000
     10813        88  PMPE      H12R           26.3939115839       29.9424951152        6.1192187142  MEMB      88              0.0000000000
     10814        88  PMPE      H12S           26.6250684478       28.5686869541        5.0765201494  MEMB      88              0.0000000000
     10815        88  PMPE      C213           26.5686882173       30.3908132594        3.9284557261  MEMB      88              0.0000000000
     10816        88  PMPE      H13R           25.7904284584       29.7325176368        3.4865505106  MEMB      88              0.0000000000
     10817        88  PMPE      H13S           27.3308607312       30.3273544652        3.1226101571  MEMB      88              0.0000000000
     10818        88  PMPE      C214           26.1579982389       31.8776404892        4.0800318497  MEMB      88              0.0000000000
     10819        88  PMPE      H14R           27.1199520734       32.3708890508        4.3362963888  MEMB      88              0.0000000000
     10820        88  PMPE      H14S           25.3137713819       31.9618737322        4.7973234287  MEMB      88              0.0000000000
     10821        88  PMPE      C215           25.6809745795       32.5210491197        2.7960769291  MEMB      88              0.0000000000
     10822        88  PMPE      H15R           26.5024883250       32.4990742161        2.0484457004  MEMB      88              0.0000000000
     10823        88  PMPE      H15S           25.3741433489       33.5552616735        3.0617466475  MEMB      88              0.0000000000
     10824        88  PMPE      C216           24.4755265509       31.8681807530        2.0100949259  MEMB      88              0.0000000000
     10825        88  PMPE      H16R           23.6441313690       31.6941768941        2.7262145394  MEMB      88              0.0000000000
     10826        88  PMPE      H16S           24.1605537814       32.5450222235        1.1872959552  MEMB      88              0.0000000000
     10827        88  PMPE      H16T           24.7445812055       30.8170347054        1.7713015007  MEMB      88              0.0000000000
     10828        88  PMPE      C33            25.0347208247       35.6384703878       10.7820760321  MEMB      88              0.0000000000
     10829        88  PMPE      H3X            24.9314709526       36.3837867036       11.5994889780  MEMB      88              0.0000000000
     10830        88  PMPE      H3Y            24.1095739252       35.5550055109       10.1726025808  MEMB      88              0.0000000000
     10831        88  PMPE      C34            26.0756181457       36.3630847007        9.8961814142  MEMB      88              0.0000000000
     10832        88  PMPE      H4X            26.9626042908       36.5930377917       10.5244314006  MEMB      88              0.0000000000
     10833        88  PMPE      H4Y            25.6409105802       37.3215611568        9.5402681754  MEMB      88              0.0000000000
     10834        88  PMPE      C35            26.4866910486       35.4247582108        8.6911044317  MEMB      88              0.0000000000
     10835        88  PMPE      H5X            25.5425286559       35.1735181348        8.1621838888  MEMB      88              0.0000000000
     10836        88  PMPE      H5Y            26.8836153103       34.4529547062        9.0549316100  MEMB      88              0.0000000000
     10837        88  PMPE      C36            27.6240362775       36.1245042915        7.8267748370  MEMB      88              0.0000000000
     10838        88  PMPE      H6X            28.4520040709       36.4502246091        8.4921296445  MEMB      88              0.0000000000
     10839        88  PMPE      H6Y            27.1118962800       36.9956557142        7.3651156930  MEMB      88              0.0000000000
     10840        88  PMPE      C37            28.2300698547       35.3538761313        6.6527293038  MEMB      88              0.0000000000
     10841        88  PMPE      H7X            27.4554122107       35.0120789682        5.9334231646  MEMB      88              0.0000000000
     10842        88  PMPE      H7Y            28.4874558958       34.3474585280        7.0466803499  MEMB      88              0.0000000000
     10843        88  PMPE      C38            29.4590206214       35.9798614336        6.0316779865  MEMB      88              0.0000000000
     10844        88  PMPE      H8X            30.3810772759       35.9946654133        6.6512858395  MEMB      88              0.0000000000
     10845        88  PMPE      H8Y            29.1151410604       37.0327146775        5.9446833291  MEMB      88              0.0000000000
     10846        88  PMPE      C39            29.7260135802       35.4324310453        4.6070865790  MEMB      88              0.0000000000
     10847        88  PMPE      H9X            30.6275502903       36.0156175774        4.3216997580  MEMB      88              0.0000000000
     10848        88  PMPE      H9Y            28.8782769837       35.6727822232        3.9304071134  MEMB      88              0.0000000000
     10849        88  PMPE      C310           30.0009454742       33.8719854614        4.4292595642  MEMB      88              0.0000000000
     10850        88  PMPE      H10X           29.0373853190       33.3834608819        4.6885206563  MEMB      88              0.0000000000
     10851        88  PMPE      H10Y           30.8496755042       33.4956008954        5.0394332847  MEMB      88              0.0000000000
     10852        88  PMPE      C311           30.2858272090       33.4963215572        2.9189417935  MEMB      88              0.0000000000
     10853        88  PMPE      H11X           31.1878621246       34.0909932473        2.6600599453  MEMB      88              0.0000000000
     10854        88  PMPE      H11Y           29.5369498020       33.8980656645        2.2033261464  MEMB      88              0.0000000000
     10855        88  PMPE      C312           30.5997817552       31.9948137134        2.8342480333  MEMB      88              0.0000000000
     10856        88  PMPE      H12X           29.7501221727       31.3667547405        3.1776737767  MEMB      88              0.0000000000
     10857        88  PMPE      H12Y           31.4756181658       31.8764997624        3.5074733865  MEMB      88              0.0000000000
     10858        88  PMPE      C313           30.9381199148       31.5645776275        1.3957670735  MEMB      88              0.0000000000
     10859        88  PMPE      H13X           31.3730228184       30.5422718747        1.4042266528  MEMB      88              0.0000000000
     10860        88  PMPE      H13Y           31.6785698123       32.2775344726        0.9741665067  MEMB      88              0.0000000000
     10861        88  PMPE      C314           29.6149145053       31.5357360981        0.5659382276  MEMB      88              0.0000000000
     10862        88  PMPE      H14X           29.4216853244       32.6061729526        0.3397771143  MEMB      88              0.0000000000
     10863        88  PMPE      H14Y           28.8721963352       31.0034705732        1.1979058775  MEMB      88              0.0000000000
     10864        88  PMPE      C315           29.6752964476       30.8269650416       -0.7827879449  MEMB      88              0.0000000000
     10865        88  PMPE      H15X           28.5883421530       30.6091366049       -0.8562836048  MEMB      88              0.0000000000
     10866        88  PMPE      H15Y           30.1017880972       29.8084582791       -0.6600276265  MEMB      88              0.0000000000
     10867        88  PMPE      C316           30.2999818586       31.6492175460       -1.8744245229  MEMB      88              0.0000000000
     10868        88  PMPE      H16X           31.3884530524       31.4807682567       -2.0199445265  MEMB      88              0.0000000000
     10869        88  PMPE      H16Y           30.2141395218       32.7223264205       -1.5998524805  MEMB      88              0.0000000000
     10870        88  PMPE      H16Z           29.8609664494       31.4432760468       -2.8740101249  MEMB      88              0.0000000000
     10871        89  PMPE      N              26.8851974482      -31.7797232206       19.8173808254  MEMB      89              0.0000000000
     10872        89  PMPE      HN1            26.0065861244      -32.1483223727       20.2342464188  MEMB      89              0.0000000000
     10873        89  PMPE      HN2            27.1500842323      -30.8547299672       20.2121244765  MEMB      89              0.0000000000
     10874        89  PMPE      HN3            26.7910276487      -31.7489480698       18.7821103787  MEMB      89              0.0000000000
     10875        89  PMPE      C12            27.9879335621      -32.7141008236       20.1273472366  MEMB      89              0.0000000000
     10876        89  PMPE      H12A           27.4629528442      -33.6735917138       19.9321720535  MEMB      89              0.0000000000
     10877        89  PMPE      H12B           28.2862879310      -32.5831637558       21.1894964433  MEMB      89              0.0000000000
     10878        89  PMPE      C11            29.0288164849      -32.6438394824       18.9837529567  MEMB      89              0.0000000000
     10879        89  PMPE      H11A           28.6295167848      -32.6897010086       17.9480032517  MEMB      89              0.0000000000
     10880        89  PMPE      H11B           29.6534458700      -33.5262285816       19.2397775238  MEMB      89              0.0000000000
     10881        89  PMPE      P              31.4379026945      -31.6256531612       18.6842243155  MEMB      89              0.0000000000
     10882        89  PMPE      O13            32.1803495350      -32.7052762291       19.4305208243  MEMB      89              0.0000000000
     10883        89  PMPE      O14            31.9651181114      -30.2535230854       18.8256132835  MEMB      89              0.0000000000
     10884        89  PMPE      O11            31.4233222170      -31.9905250811       17.0517795285  MEMB      89              0.0000000000
     10885        89  PMPE      O12            29.8738951397      -31.4966157024       19.0793809970  MEMB      89              0.0000000000
     10886        89  PMPE      C1             31.0127362338      -31.0442906483       16.1569859157  MEMB      89              0.0000000000
     10887        89  PMPE      HA             31.4441496495      -30.0480678646       16.3930865864  MEMB      89              0.0000000000
     10888        89  PMPE      HB             29.9274592348      -30.8483734367       16.2915639671  MEMB      89              0.0000000000
     10889        89  PMPE      C2             31.3081144543      -31.4415707685       14.6613101829  MEMB      89              0.0000000000
     10890        89  PMPE      HS             31.1304940134      -30.5223716221       14.0631086995  MEMB      89              0.0000000000
     10891        89  PMPE      O21            30.4282529571      -32.4953872437       14.2646269802  MEMB      89              0.0000000000
     10892        89  PMPE      C21            29.1588308487      -32.1029081222       14.0490075050  MEMB      89              0.0000000000
     10893        89  PMPE      O22            28.7797274774      -30.9714040649       14.0444070208  MEMB      89              0.0000000000
     10894        89  PMPE      C22            28.3233945421      -33.2999522172       13.4714838701  MEMB      89              0.0000000000
     10895        89  PMPE      H2R            27.2839765473      -32.9295624527       13.3420899434  MEMB      89              0.0000000000
     10896        89  PMPE      H2S            28.3372213898      -34.0923970206       14.2500473085  MEMB      89              0.0000000000
     10897        89  PMPE      C3             32.7737362888      -31.8336541030       14.5156530438  MEMB      89              0.0000000000
     10898        89  PMPE      HX             33.0416333771      -32.8174083266       14.9569916462  MEMB      89              0.0000000000
     10899        89  PMPE      HY             33.3276427448      -31.0929384594       15.1311605129  MEMB      89              0.0000000000
     10900        89  PMPE      O31            33.1645198469      -31.6572162715       13.1629555329  MEMB      89              0.0000000000
     10901        89  PMPE      C31            33.1844045080      -32.8285660282       12.4668617419  MEMB      89              0.0000000000
     10902        89  PMPE      O32            32.8569780147      -33.9468826224       12.8292659572  MEMB      89              0.0000000000
     10903        89  PMPE      C32            33.5837516275      -32.5061162379       11.0505279156  MEMB      89              0.0000000000
     10904        89  PMPE      H2X            34.5559349082      -31.9720999849       11.1138282153  MEMB      89              0.0000000000
     10905        89  PMPE      H2Y            32.8711089590      -31.7375848717       10.6819885589  MEMB      89              0.0000000000
     10906        89  PMPE      C23            28.6717883943      -33.8994673221       12.0808915533  MEMB      89              0.0000000000
     10907        89  PMPE      H3R            27.9196718722      -34.6938564566       11.8870163355  MEMB      89              0.0000000000
     10908        89  PMPE      H3S            29.6211287915      -34.4747919844       12.1264452389  MEMB      89              0.0000000000
     10909        89  PMPE      C24            28.7827599040      -32.9059399437       10.9612788514  MEMB      89              0.0000000000
     10910        89  PMPE      H4R            29.5176094601      -32.1198747114       11.2377182322  MEMB      89              0.0000000000
     10911        89  PMPE      H4S            27.7949744310      -32.4231924783       10.8014171117  MEMB      89              0.0000000000
     10912        89  PMPE      C25            29.0039382307      -33.6920826244        9.7156509051  MEMB      89              0.0000000000
     10913        89  PMPE      H5R            27.9921613963      -33.8891328308        9.3011635367  MEMB      89              0.0000000000
     10914        89  PMPE      H5S            29.4802630533      -34.6641033839        9.9658732492  MEMB      89              0.0000000000
     10915        89  PMPE      C26            29.9584412910      -32.9595874182        8.6339306215  MEMB      89              0.0000000000
     10916        89  PMPE      H6R            30.9080440192      -32.7599333443        9.1749606129  MEMB      89              0.0000000000
     10917        89  PMPE      H6S            29.3787015981      -32.0446024429        8.3868973382  MEMB      89              0.0000000000
     10918        89  PMPE      C27            30.2029166340      -33.6514378445        7.3150734595  MEMB      89              0.0000000000
     10919        89  PMPE      H7R            30.8335061049      -32.9855223183        6.6879895797  MEMB      89              0.0000000000
     10920        89  PMPE      H7S            29.2214863848      -33.8597742885        6.8378821943  MEMB      89              0.0000000000
     10921        89  PMPE      C28            30.8071794764      -35.0740533548        7.5058732685  MEMB      89              0.0000000000
     10922        89  PMPE      H8R            31.1723977017      -35.0782457031        8.5551196618  MEMB      89              0.0000000000
     10923        89  PMPE      H8S            31.6283950152      -35.2785631497        6.7860800705  MEMB      89              0.0000000000
     10924        89  PMPE      C29            29.7675386389      -36.2170465198        7.3053305057  MEMB      89              0.0000000000
     10925        89  PMPE      H9R            28.9198598404      -36.3627669705        8.0085573344  MEMB      89              0.0000000000
     10926        89  PMPE      C217           30.3184199878      -37.5442891363        6.7593884163  MEMB      89              0.0000000000
     10927        89  PMPE      H17R           29.9775973299      -38.4144403533        7.3067143779  MEMB      89              0.0000000000
     10928        89  PMPE      H17S           31.3849765788      -37.4294321566        6.6105461443  MEMB      89              0.0000000000
     10929        89  PMPE      C210           29.3371507098      -36.7383885281        5.9416420870  MEMB      89              0.0000000000
     10930        89  PMPE      H10R           28.3366981418      -37.2092221124        5.8333294357  MEMB      89              0.0000000000
     10931        89  PMPE      C211           29.8606871074      -35.9224670963        4.7091513907  MEMB      89              0.0000000000
     10932        89  PMPE      H11R           29.9360230604      -36.5823254885        3.8185156184  MEMB      89              0.0000000000
     10933        89  PMPE      H11S           30.8458751914      -35.4274639741        4.8458891625  MEMB      89              0.0000000000
     10934        89  PMPE      C212           28.7201853691      -34.9345891242        4.2772080633  MEMB      89              0.0000000000
     10935        89  PMPE      H12R           28.1487763406      -34.6039760470        5.1708004642  MEMB      89              0.0000000000
     10936        89  PMPE      H12S           28.0212846990      -35.6516918379        3.7959365809  MEMB      89              0.0000000000
     10937        89  PMPE      C213           29.0440609218      -33.9203477129        3.1820798673  MEMB      89              0.0000000000
     10938        89  PMPE      H13R           29.2281816391      -34.4170696273        2.2055101467  MEMB      89              0.0000000000
     10939        89  PMPE      H13S           29.9067945226      -33.2856986220        3.4774301926  MEMB      89              0.0000000000
     10940        89  PMPE      C214           27.8391535924      -33.0136459168        2.9722409960  MEMB      89              0.0000000000
     10941        89  PMPE      H14R           27.9574534066      -32.5547494421        1.9673818407  MEMB      89              0.0000000000
     10942        89  PMPE      H14S           27.8567706343      -32.0866572756        3.5843696599  MEMB      89              0.0000000000
     10943        89  PMPE      C215           26.4253941349      -33.6281862607        3.0304394462  MEMB      89              0.0000000000
     10944        89  PMPE      H15R           26.2175898721      -33.6075484018        4.1216372993  MEMB      89              0.0000000000
     10945        89  PMPE      H15S           26.3490329581      -34.6534071688        2.6092366037  MEMB      89              0.0000000000
     10946        89  PMPE      C216           25.4881544871      -32.8287143090        2.1267337221  MEMB      89              0.0000000000
     10947        89  PMPE      H16R           24.4931330044      -33.3199718080        2.0727024606  MEMB      89              0.0000000000
     10948        89  PMPE      H16S           25.1219124798      -31.8361901740        2.4659725705  MEMB      89              0.0000000000
     10949        89  PMPE      H16T           25.9260031410      -32.7248693662        1.1109449528  MEMB      89              0.0000000000
     10950        89  PMPE      C33            33.5881882101      -33.7974575221       10.2984335375  MEMB      89              0.0000000000
     10951        89  PMPE      H3X            32.5641850532      -34.1687901744       10.0796858438  MEMB      89              0.0000000000
     10952        89  PMPE      H3Y            34.1235007823      -34.6157677725       10.8258142005  MEMB      89              0.0000000000
     10953        89  PMPE      C34            34.3766479487      -33.7310306204        8.9769346581  MEMB      89              0.0000000000
     10954        89  PMPE      H4X            34.3430737298      -34.7856875475        8.6292387867  MEMB      89              0.0000000000
     10955        89  PMPE      H4Y            35.4504502977      -33.6838662618        9.2580856747  MEMB      89              0.0000000000
     10956        89  PMPE      C35            34.0133503127      -32.6336962314        7.9494800246  MEMB      89              0.0000000000
     10957        89  PMPE      H5X            34.3715671206      -31.6878879002        8.4093149327  MEMB      89              0.0000000000
     10958        89  PMPE      H5Y            32.9058100304      -32.5596321898        7.9026796392  MEMB      89              0.0000000000
     10959        89  PMPE      C36            34.7623418368      -32.8993174284        6.6127176545  MEMB      89              0.0000000000
     10960        89  PMPE      H6X            35.8023251613      -33.1409785477        6.9198911776  MEMB      89              0.0000000000
     10961        89  PMPE      H6Y            34.8334920448      -31.9672512299        6.0122911455  MEMB      89              0.0000000000
     10962        89  PMPE      C37            34.2077589260      -33.9737440031        5.6533788008  MEMB      89              0.0000000000
     10963        89  PMPE      H7X            33.2027216409      -33.6671113318        5.2925492053  MEMB      89              0.0000000000
     10964        89  PMPE      H7Y            34.2266413085      -35.0220984885        6.0206895580  MEMB      89              0.0000000000
     10965        89  PMPE      C38            35.1841599156      -34.0896243113        4.4966087996  MEMB      89              0.0000000000
     10966        89  PMPE      H8X            36.0073385434      -34.7600357463        4.8240927393  MEMB      89              0.0000000000
     10967        89  PMPE      H8Y            35.6267253535      -33.1496871413        4.1029402711  MEMB      89              0.0000000000
     10968        89  PMPE      C39            34.6895915269      -34.7598097944        3.2281877967  MEMB      89              0.0000000000
     10969        89  PMPE      H9X            34.6249089278      -35.8641427467        3.3310772622  MEMB      89              0.0000000000
     10970        89  PMPE      H9Y            35.5272978148      -34.5959203613        2.5170565967  MEMB      89              0.0000000000
     10971        89  PMPE      C310           33.4546204100      -34.0083370899        2.6209018709  MEMB      89              0.0000000000
     10972        89  PMPE      H10X           33.6190335793      -32.9095821178        2.6157210489  MEMB      89              0.0000000000
     10973        89  PMPE      H10Y           32.5091264468      -34.1941729811        3.1739189787  MEMB      89              0.0000000000
     10974        89  PMPE      C311           33.1561836601      -34.4304198706        1.1697749720  MEMB      89              0.0000000000
     10975        89  PMPE      H11X           32.6872361012      -35.4375984909        1.1688534698  MEMB      89              0.0000000000
     10976        89  PMPE      H11Y           34.1086795090      -34.4056507976        0.5984080143  MEMB      89              0.0000000000
     10977        89  PMPE      C312           32.1621492683      -33.3673500317        0.5897446134  MEMB      89              0.0000000000
     10978        89  PMPE      H12X           32.4739464203      -32.3358194399        0.8600199031  MEMB      89              0.0000000000
     10979        89  PMPE      H12Y           31.2082724032      -33.4495530854        1.1533781386  MEMB      89              0.0000000000
     10980        89  PMPE      C313           31.9514302382      -33.4162873268       -0.9516612364  MEMB      89              0.0000000000
     10981        89  PMPE      H13X           32.5723852681      -34.3126978755       -1.1642268106  MEMB      89              0.0000000000
     10982        89  PMPE      H13Y           32.4388727393      -32.4812009940       -1.3014258970  MEMB      89              0.0000000000
     10983        89  PMPE      C314           30.5498964458      -33.6082147597       -1.5110359425  MEMB      89              0.0000000000
     10984        89  PMPE      H14X           29.8469217753      -34.2688988329       -0.9599970558  MEMB      89              0.0000000000
     10985        89  PMPE      H14Y           30.8559568592      -34.1137992205       -2.4517975715  MEMB      89              0.0000000000
     10986        89  PMPE      C315           29.8670678980      -32.3011989868       -1.7935312788  MEMB      89              0.0000000000
     10987        89  PMPE      H15X           30.5538983976      -31.7443933376       -2.4662501019  MEMB      89              0.0000000000
     10988        89  PMPE      H15Y           29.7662229600      -31.8274180280       -0.7936899184  MEMB      89              0.0000000000
     10989        89  PMPE      C316           28.5116775163      -32.4435749449       -2.4503288049  MEMB      89              0.0000000000
     10990        89  PMPE      H16X           28.6543677163      -33.1100629458       -3.3276849513  MEMB      89              0.0000000000
     10991        89  PMPE      H16Y           28.1816608659      -31.4811357874       -2.8965583858  MEMB      89              0.0000000000
     10992        89  PMPE      H16Z           27.7743238964      -32.9030057657       -1.7578304508  MEMB      89              0.0000000000
     10993        90  PVCL2     C3            -34.2029535577       27.4495167393       19.5380670088  MEMB      90              0.0000000000
     10994        90  PVCL2     HG31          -33.2940646962       27.5110220766       18.9020959780  MEMB      90              0.0000000000
     10995        90  PVCL2     HG32          -34.7350373291       26.5957988284       19.0665019655  MEMB      90              0.0000000000
     10996        90  PVCL2     P3            -35.1463407306       29.1647777079       17.9053870765  MEMB      90              0.0000000000
     10997        90  PVCL2     OP33          -34.8445233518       28.1968524714       16.8408566931  MEMB      90              0.0000000000
     10998        90  PVCL2     OP34          -34.4270104496       30.4471335539       17.8331890708  MEMB      90              0.0000000000
     10999        90  PVCL2     OP31          -35.0317994632       28.5649163882       19.4151593887  MEMB      90              0.0000000000
     11000        90  PVCL2     OP32          -36.7490645836       29.3447368232       17.8009127655  MEMB      90              0.0000000000
     11001        90  PVCL2     C31           -37.7091296386       28.5269142373       18.4146353101  MEMB      90              0.0000000000
     11002        90  PVCL2     H31J          -37.2667832229       28.0992735981       19.3397157671  MEMB      90              0.0000000000
     11003        90  PVCL2     H31K          -38.6065308983       29.1042224317       18.7240023551  MEMB      90              0.0000000000
     11004        90  PVCL2     C2            -33.9505623596       27.3731598699       20.9863177860  MEMB      90              0.0000000000
     11005        90  PVCL2     HG22          -34.9013591098       27.4590312612       21.5545895359  MEMB      90              0.0000000000
     11006        90  PVCL2     OG12          -33.5508245704       26.0663730571       21.3608813980  MEMB      90              0.0000000000
     11007        90  PVCL2     HO12          -34.2642590348       25.4344188245       21.2457939002  MEMB      90              0.0000000000
     11008        90  PVCL2     C1            -32.9749588981       28.4142204647       21.5277718737  MEMB      90              0.0000000000
     11009        90  PVCL2     HG11          -32.8102598237       28.3151220556       22.6220179906  MEMB      90              0.0000000000
     11010        90  PVCL2     HG12          -33.3056555223       29.4491493522       21.2956448237  MEMB      90              0.0000000000
     11011        90  PVCL2     P1            -30.4275784118       29.1259167609       21.3439143273  MEMB      90              0.0000000000
     11012        90  PVCL2     OP13          -30.7485769172       30.5827492897       21.4859282043  MEMB      90              0.0000000000
     11013        90  PVCL2     OP14          -29.9752620112       28.3988710923       22.6078126986  MEMB      90              0.0000000000
     11014        90  PVCL2     OP11          -31.6844618801       28.2891779249       20.9155183041  MEMB      90              0.0000000000
     11015        90  PVCL2     OP12          -29.2898790479       28.8803425356       20.1662051763  MEMB      90              0.0000000000
     11016        90  PVCL2     C11           -29.6188708425       29.3638590001       18.8490389127  MEMB      90              0.0000000000
     11017        90  PVCL2     H11J          -28.6529770686       29.6025417330       18.3546696832  MEMB      90              0.0000000000
     11018        90  PVCL2     H11K          -30.1774139409       30.3183458819       18.9553642788  MEMB      90              0.0000000000
     11019        90  PVCL2     C12           -30.3992744595       28.3449204016       17.9602359466  MEMB      90              0.0000000000
     11020        90  PVCL2     H12J          -31.3419576118       28.1089827840       18.4987550831  MEMB      90              0.0000000000
     11021        90  PVCL2     O12           -29.5777893563       27.2121306554       17.6797095436  MEMB      90              0.0000000000
     11022        90  PVCL2     CA1           -30.1601611528       26.1422318414       17.1582524664  MEMB      90              0.0000000000
     11023        90  PVCL2     OA1           -31.3775983517       25.9196986418       17.0847749746  MEMB      90              0.0000000000
     11024        90  PVCL2     CA2           -29.1029495047       25.1678983343       16.7571437132  MEMB      90              0.0000000000
     11025        90  PVCL2     H2A           -28.6056879562       24.8133858088       17.6852455581  MEMB      90              0.0000000000
     11026        90  PVCL2     H2B           -28.2741992041       25.5956967382       16.1534201942  MEMB      90              0.0000000000
     11027        90  PVCL2     C13           -30.7124656364       29.0192554360       16.6017761801  MEMB      90              0.0000000000
     11028        90  PVCL2     H13J          -29.7121726964       28.9424881267       16.1244482622  MEMB      90              0.0000000000
     11029        90  PVCL2     H13K          -31.0841340598       30.0536492311       16.7636804317  MEMB      90              0.0000000000
     11030        90  PVCL2     O13           -31.6668924730       28.3162681073       15.7133491603  MEMB      90              0.0000000000
     11031        90  PVCL2     CB1           -31.8096535975       28.7357801855       14.5048520845  MEMB      90              0.0000000000
     11032        90  PVCL2     OB1           -31.2853921533       29.7259542093       14.0987894447  MEMB      90              0.0000000000
     11033        90  PVCL2     CB2           -32.7096449880       27.7530563489       13.7561383523  MEMB      90              0.0000000000
     11034        90  PVCL2     H2D           -33.7526280665       27.8642373823       14.1223976960  MEMB      90              0.0000000000
     11035        90  PVCL2     H2E           -32.3413436578       26.7314823302       13.9907907981  MEMB      90              0.0000000000
     11036        90  PVCL2     C32           -38.1874673770       27.3599415539       17.5051193265  MEMB      90              0.0000000000
     11037        90  PVCL2     H32J          -38.9033017663       26.7657767977       18.1124661588  MEMB      90              0.0000000000
     11038        90  PVCL2     O32           -37.0824856860       26.6545104679       16.9196252100  MEMB      90              0.0000000000
     11039        90  PVCL2     CC1           -37.2861748613       25.4016894645       16.4534004126  MEMB      90              0.0000000000
     11040        90  PVCL2     OC1           -38.3321576541       24.7352232661       16.6451251083  MEMB      90              0.0000000000
     11041        90  PVCL2     CC2           -36.0520072154       24.9476464784       15.6821450937  MEMB      90              0.0000000000
     11042        90  PVCL2     H2R           -36.0023255521       23.8381391873       15.6530439895  MEMB      90              0.0000000000
     11043        90  PVCL2     H2S           -35.1069743134       25.2765310380       16.1649170926  MEMB      90              0.0000000000
     11044        90  PVCL2     C33           -39.0575548902       27.9978823343       16.3679927787  MEMB      90              0.0000000000
     11045        90  PVCL2     H33J          -39.4778824233       27.1939622743       15.7266206437  MEMB      90              0.0000000000
     11046        90  PVCL2     H33K          -39.9283441908       28.5195165871       16.8195947092  MEMB      90              0.0000000000
     11047        90  PVCL2     O33           -38.3482207887       28.9917437171       15.6490972508  MEMB      90              0.0000000000
     11048        90  PVCL2     CD1           -38.0964126758       28.8071144917       14.3166935063  MEMB      90              0.0000000000
     11049        90  PVCL2     OD1           -38.3662199029       27.8106851205       13.6736988895  MEMB      90              0.0000000000
     11050        90  PVCL2     CD2           -37.7117410282       30.1526860130       13.6930998817  MEMB      90              0.0000000000
     11051        90  PVCL2     H2X           -38.3582655879       30.9148220044       14.1783578526  MEMB      90              0.0000000000
     11052        90  PVCL2     H2Y           -37.7975990732       30.1784423345       12.5857218087  MEMB      90              0.0000000000
     11053        90  PVCL2     CA3           -29.7473450832       24.0336674149       15.9178581851  MEMB      90              0.0000000000
     11054        90  PVCL2     H3A           -30.6832614645       23.6482439793       16.3759308309  MEMB      90              0.0000000000
     11055        90  PVCL2     H3B           -29.0766983754       23.1533225614       16.0155663288  MEMB      90              0.0000000000
     11056        90  PVCL2     CA4           -29.9904799800       24.2377300416       14.4393365930  MEMB      90              0.0000000000
     11057        90  PVCL2     H4A           -30.8855429254       24.8909451653       14.3587548787  MEMB      90              0.0000000000
     11058        90  PVCL2     H4B           -30.1363426913       23.2927352310       13.8736247848  MEMB      90              0.0000000000
     11059        90  PVCL2     CA5           -28.8445558893       24.8049533013       13.7068966182  MEMB      90              0.0000000000
     11060        90  PVCL2     H5A           -28.0094134214       24.1677117354       14.0685327292  MEMB      90              0.0000000000
     11061        90  PVCL2     H5B           -28.6694010442       25.8453641722       14.0550158796  MEMB      90              0.0000000000
     11062        90  PVCL2     CA6           -29.1192188557       24.7596017919       12.1859168714  MEMB      90              0.0000000000
     11063        90  PVCL2     H6A           -30.1810303598       25.0205711078       11.9890101227  MEMB      90              0.0000000000
     11064        90  PVCL2     H6B           -29.0113841815       23.6749577892       11.9708819507  MEMB      90              0.0000000000
     11065        90  PVCL2     CA7           -28.2091959542       25.5136166621       11.2218279280  MEMB      90              0.0000000000
     11066        90  PVCL2     H7A           -27.1836354665       25.1827290585       11.4921253061  MEMB      90              0.0000000000
     11067        90  PVCL2     H7B           -28.2491035095       26.5802856046       11.5299601329  MEMB      90              0.0000000000
     11068        90  PVCL2     CA8           -28.3701982310       25.4001055281        9.7056927638  MEMB      90              0.0000000000
     11069        90  PVCL2     H8A           -29.4023783477       25.6977657354        9.4222784789  MEMB      90              0.0000000000
     11070        90  PVCL2     H8B           -28.2092964271       24.3282591951        9.4616083123  MEMB      90              0.0000000000
     11071        90  PVCL2     CA9           -27.3334990013       26.1237717661        8.8638403415  MEMB      90              0.0000000000
     11072        90  PVCL2     H9A           -26.3150187957       25.8528330686        9.2154252091  MEMB      90              0.0000000000
     11073        90  PVCL2     H9B           -27.3127890916       27.2341036372        8.8963233235  MEMB      90              0.0000000000
     11074        90  PVCL2     CA10          -27.3753786832       25.6250545844        7.4117390251  MEMB      90              0.0000000000
     11075        90  PVCL2     H10A          -28.3565745413       25.9667555090        7.0182724427  MEMB      90              0.0000000000
     11076        90  PVCL2     H10B          -27.2560763337       24.5206546388        7.4314671356  MEMB      90              0.0000000000
     11077        90  PVCL2     CA11          -26.2984554209       26.2408771346        6.5103893387  MEMB      90              0.0000000000
     11078        90  PVCL2     H11A          -25.2926855536       25.9287432686        6.8281928851  MEMB      90              0.0000000000
     11079        90  PVCL2     CA12          -26.5765579899       26.9758584674        5.3534192142  MEMB      90              0.0000000000
     11080        90  PVCL2     H12A          -25.7249453827       27.3870893869        4.7915954777  MEMB      90              0.0000000000
     11081        90  PVCL2     CA13          -27.9590247986       27.3444840732        4.8458181738  MEMB      90              0.0000000000
     11082        90  PVCL2     H13A          -28.0686743015       28.4497264272        4.8186662634  MEMB      90              0.0000000000
     11083        90  PVCL2     H13B          -28.7962425685       26.9977931806        5.4886182247  MEMB      90              0.0000000000
     11084        90  PVCL2     CA14          -28.2311167931       26.7840508625        3.4983190485  MEMB      90              0.0000000000
     11085        90  PVCL2     H14A          -29.2684859681       27.1140803888        3.2763578778  MEMB      90              0.0000000000
     11086        90  PVCL2     H14B          -28.2369967444       25.6806227875        3.6276737599  MEMB      90              0.0000000000
     11087        90  PVCL2     CA15          -27.2751433189       27.2857497296        2.4470724260  MEMB      90              0.0000000000
     11088        90  PVCL2     H15A          -26.2571484826       26.8838940451        2.6381733808  MEMB      90              0.0000000000
     11089        90  PVCL2     H15B          -27.1689863733       28.3824088471        2.5898679103  MEMB      90              0.0000000000
     11090        90  PVCL2     CA16          -27.5854973967       26.9432765673        0.9479664925  MEMB      90              0.0000000000
     11091        90  PVCL2     H16A          -26.7423319826       27.2290632401        0.2833463086  MEMB      90              0.0000000000
     11092        90  PVCL2     H16B          -28.4800616041       27.4607767224        0.5402046281  MEMB      90              0.0000000000
     11093        90  PVCL2     CA17          -27.8229985805       25.4650783146        0.8421427214  MEMB      90              0.0000000000
     11094        90  PVCL2     H17A          -28.7696644393       25.1970168047        1.3581728007  MEMB      90              0.0000000000
     11095        90  PVCL2     H17B          -26.9366931376       25.0043848423        1.3285014076  MEMB      90              0.0000000000
     11096        90  PVCL2     CA18          -28.0143818403       25.0023240027       -0.6204211139  MEMB      90              0.0000000000
     11097        90  PVCL2     H18A          -28.7346236283       25.6653376784       -1.1457651272  MEMB      90              0.0000000000
     11098        90  PVCL2     H18B          -28.3242397436       23.9416450120       -0.5052313593  MEMB      90              0.0000000000
     11099        90  PVCL2     H18C          -27.1337951521       25.0657023465       -1.2948629948  MEMB      90              0.0000000000
     11100        90  PVCL2     CB3           -32.8246562058       27.8311402547       12.2758945480  MEMB      90              0.0000000000
     11101        90  PVCL2     H3D           -32.5061762650       28.8557385838       11.9876415000  MEMB      90              0.0000000000
     11102        90  PVCL2     H3E           -33.8556606817       27.5931858855       11.9371785039  MEMB      90              0.0000000000
     11103        90  PVCL2     CB4           -31.9711880827       26.8103071082       11.4932068117  MEMB      90              0.0000000000
     11104        90  PVCL2     H4D           -32.1910362518       25.7488905625       11.7368926615  MEMB      90              0.0000000000
     11105        90  PVCL2     H4E           -30.9205174116       26.9570214643       11.8231873224  MEMB      90              0.0000000000
     11106        90  PVCL2     CB5           -31.9903599578       26.9645474282        9.9458649933  MEMB      90              0.0000000000
     11107        90  PVCL2     H5D           -33.0603202248       26.8136056223        9.6875580182  MEMB      90              0.0000000000
     11108        90  PVCL2     H5E           -31.5756124781       26.0458422770        9.4786540264  MEMB      90              0.0000000000
     11109        90  PVCL2     CB6           -31.3633797270       28.2606559834        9.4344966103  MEMB      90              0.0000000000
     11110        90  PVCL2     H6D           -30.3524969004       28.2773002814        9.8951050005  MEMB      90              0.0000000000
     11111        90  PVCL2     H6E           -31.8063759760       29.2223893417        9.7708666290  MEMB      90              0.0000000000
     11112        90  PVCL2     CB7           -31.1812173142       28.2061613202        7.9180095593  MEMB      90              0.0000000000
     11113        90  PVCL2     H7D           -32.0270395864       27.7492263046        7.3611290366  MEMB      90              0.0000000000
     11114        90  PVCL2     H7E           -30.3534222772       27.5478017683        7.5779518100  MEMB      90              0.0000000000
     11115        90  PVCL2     CB8           -30.8399321044       29.5770741689        7.2843240376  MEMB      90              0.0000000000
     11116        90  PVCL2     H8D           -30.6786958884       29.4122931162        6.1975067426  MEMB      90              0.0000000000
     11117        90  PVCL2     H8E           -29.8984988543       29.9462679190        7.7444549457  MEMB      90              0.0000000000
     11118        90  PVCL2     CB9           -31.9794852585       30.5921262774        7.3316124641  MEMB      90              0.0000000000
     11119        90  PVCL2     H9D           -32.1744856335       30.8621629412        8.3915064329  MEMB      90              0.0000000000
     11120        90  PVCL2     H9E           -32.8290738810       30.0355112326        6.8813905842  MEMB      90              0.0000000000
     11121        90  PVCL2     CB10          -31.6057433345       31.7599354835        6.4543659301  MEMB      90              0.0000000000
     11122        90  PVCL2     H10D          -31.0109149745       31.3972149979        5.5889563943  MEMB      90              0.0000000000
     11123        90  PVCL2     H10E          -31.1313418115       32.5695375523        7.0491841372  MEMB      90              0.0000000000
     11124        90  PVCL2     CB11          -32.9033789263       32.4931608903        5.8830001007  MEMB      90              0.0000000000
     11125        90  PVCL2     H11D          -32.5062086410       33.5056600318        5.6562346273  MEMB      90              0.0000000000
     11126        90  PVCL2     H11E          -33.7501197314       32.6803323537        6.5774907441  MEMB      90              0.0000000000
     11127        90  PVCL2     CB12          -33.6006492467       31.7471240548        4.7075294124  MEMB      90              0.0000000000
     11128        90  PVCL2     H12D          -34.2957633654       32.5138309470        4.3034274817  MEMB      90              0.0000000000
     11129        90  PVCL2     H12E          -34.2539445337       30.9068939945        5.0261813804  MEMB      90              0.0000000000
     11130        90  PVCL2     CB13          -32.6670132892       31.2166405240        3.6598517169  MEMB      90              0.0000000000
     11131        90  PVCL2     H13D          -32.0914479717       30.3332076702        4.0099831578  MEMB      90              0.0000000000
     11132        90  PVCL2     H13E          -31.8804416028       31.9067819003        3.2865800936  MEMB      90              0.0000000000
     11133        90  PVCL2     CB14          -33.3916773732       30.9478632863        2.3314939223  MEMB      90              0.0000000000
     11134        90  PVCL2     H14D          -33.9788185903       31.8556531448        2.0755558716  MEMB      90              0.0000000000
     11135        90  PVCL2     H14E          -34.0567367720       30.0595641990        2.3857315771  MEMB      90              0.0000000000
     11136        90  PVCL2     CB15          -32.3840303745       30.6369603633        1.2335341746  MEMB      90              0.0000000000
     11137        90  PVCL2     H15D          -32.0091871673       29.6132285066        1.4475124808  MEMB      90              0.0000000000
     11138        90  PVCL2     H15E          -31.5891905169       31.4101047203        1.3028030558  MEMB      90              0.0000000000
     11139        90  PVCL2     CB16          -33.0546366267       30.7280603950       -0.1471011309  MEMB      90              0.0000000000
     11140        90  PVCL2     H16D          -33.8529147579       29.9553602193       -0.1443649110  MEMB      90              0.0000000000
     11141        90  PVCL2     H16E          -32.2196382406       30.4847788998       -0.8384133051  MEMB      90              0.0000000000
     11142        90  PVCL2     H16F          -33.4991084485       31.7407633987       -0.2529222092  MEMB      90              0.0000000000
     11143        90  PVCL2     CC3           -35.9937768659       25.4845925640       14.2030526449  MEMB      90              0.0000000000
     11144        90  PVCL2     H3R           -34.9951171749       25.1118554962       13.8898970537  MEMB      90              0.0000000000
     11145        90  PVCL2     H3S           -35.9240036296       26.5922243092       14.1520221038  MEMB      90              0.0000000000
     11146        90  PVCL2     CC4           -36.9702244164       24.7708918754       13.2296457467  MEMB      90              0.0000000000
     11147        90  PVCL2     H4R           -37.9393782193       25.3055726520       13.1338414220  MEMB      90              0.0000000000
     11148        90  PVCL2     H4S           -37.0693691374       23.7437166079       13.6412308069  MEMB      90              0.0000000000
     11149        90  PVCL2     CC5           -36.4520408761       24.7933290233       11.7812372543  MEMB      90              0.0000000000
     11150        90  PVCL2     H5R           -36.1939175225       25.7788320268       11.3379793703  MEMB      90              0.0000000000
     11151        90  PVCL2     H5S           -37.2326359876       24.3749239475       11.1104694506  MEMB      90              0.0000000000
     11152        90  PVCL2     CC6           -35.1699018134       23.9191655646       11.5675993580  MEMB      90              0.0000000000
     11153        90  PVCL2     H6R           -35.3286698235       22.9612529769       12.1075230480  MEMB      90              0.0000000000
     11154        90  PVCL2     H6S           -34.2343129133       24.3389406622       11.9951308532  MEMB      90              0.0000000000
     11155        90  PVCL2     CC7           -34.8404511843       23.5395537624       10.1082021318  MEMB      90              0.0000000000
     11156        90  PVCL2     H7R           -34.4081198079       24.3378698319        9.4678104263  MEMB      90              0.0000000000
     11157        90  PVCL2     H7S           -35.7546989440       23.0633349831        9.6938505337  MEMB      90              0.0000000000
     11158        90  PVCL2     CC8           -33.9024450852       22.3286826691       10.1305823199  MEMB      90              0.0000000000
     11159        90  PVCL2     H8R           -34.1679240740       21.6104184077       10.9355280527  MEMB      90              0.0000000000
     11160        90  PVCL2     H8S           -32.8878618874       22.5997432680       10.4931678432  MEMB      90              0.0000000000
     11161        90  PVCL2     CC9           -33.8614158040       21.7545600093        8.7232744770  MEMB      90              0.0000000000
     11162        90  PVCL2     H9R           -34.3966684446       22.4182062041        8.0109553408  MEMB      90              0.0000000000
     11163        90  PVCL2     H9S           -34.3776445799       20.7842642611        8.8856176682  MEMB      90              0.0000000000
     11164        90  PVCL2     CC10          -32.3867312423       21.5662232068        8.2320791268  MEMB      90              0.0000000000
     11165        90  PVCL2     H10R          -32.2260644596       20.8568177226        7.3922863851  MEMB      90              0.0000000000
     11166        90  PVCL2     H10S          -32.0667457830       21.0425111644        9.1581759786  MEMB      90              0.0000000000
     11167        90  PVCL2     CC11          -31.6789463970       22.8553497338        8.0546795900  MEMB      90              0.0000000000
     11168        90  PVCL2     H11R          -32.2531059249       23.7298747031        8.3946026274  MEMB      90              0.0000000000
     11169        90  PVCL2     CC12          -30.4502790170       23.1037231017        7.5462144378  MEMB      90              0.0000000000
     11170        90  PVCL2     H12R          -30.1766780266       24.1644758837        7.4464863192  MEMB      90              0.0000000000
     11171        90  PVCL2     CC13          -29.5142947474       22.0371955527        7.0397496190  MEMB      90              0.0000000000
     11172        90  PVCL2     H13R          -29.8529570192       21.0433890010        7.4030383149  MEMB      90              0.0000000000
     11173        90  PVCL2     H13S          -28.5068780376       22.2037798396        7.4775651041  MEMB      90              0.0000000000
     11174        90  PVCL2     CC14          -29.2707811366       21.9429001636        5.5139067191  MEMB      90              0.0000000000
     11175        90  PVCL2     H14R          -28.8414469852       22.8798680074        5.0990753998  MEMB      90              0.0000000000
     11176        90  PVCL2     H14S          -30.2594449201       21.7246182534        5.0565030414  MEMB      90              0.0000000000
     11177        90  PVCL2     CC15          -28.4227564378       20.6819336627        5.2137782376  MEMB      90              0.0000000000
     11178        90  PVCL2     H15R          -28.7937465912       19.7868781680        5.7574349360  MEMB      90              0.0000000000
     11179        90  PVCL2     H15S          -27.4018714650       20.8222556205        5.6290188788  MEMB      90              0.0000000000
     11180        90  PVCL2     CC16          -28.3791788364       20.2475637534        3.7642036066  MEMB      90              0.0000000000
     11181        90  PVCL2     H16R          -29.3661063224       19.9717976397        3.3349621373  MEMB      90              0.0000000000
     11182        90  PVCL2     H16S          -27.7546421127       19.3306855328        3.7041247815  MEMB      90              0.0000000000
     11183        90  PVCL2     CC17          -27.7495668406       21.3142654443        2.7688475778  MEMB      90              0.0000000000
     11184        90  PVCL2     H17R          -27.2409372238       20.6601037670        2.0287871010  MEMB      90              0.0000000000
     11185        90  PVCL2     H17S          -26.8960992947       21.7811573622        3.3054350757  MEMB      90              0.0000000000
     11186        90  PVCL2     CC18          -28.5942207371       22.3239890741        2.0948369455  MEMB      90              0.0000000000
     11187        90  PVCL2     H18R          -28.8667651689       23.2026115187        2.7177842890  MEMB      90              0.0000000000
     11188        90  PVCL2     H18S          -29.5516557998       21.8867898439        1.7391741311  MEMB      90              0.0000000000
     11189        90  PVCL2     H18T          -28.1105533855       22.6351346277        1.1442704962  MEMB      90              0.0000000000
     11190        90  PVCL2     CD3           -36.2229568828       30.3703649514       14.0853481125  MEMB      90              0.0000000000
     11191        90  PVCL2     H3X           -35.7487647893       29.5469679602       13.5096048187  MEMB      90              0.0000000000
     11192        90  PVCL2     H3Y           -36.0022351324       30.2221582369       15.1640684230  MEMB      90              0.0000000000
     11193        90  PVCL2     CD4           -35.6291697372       31.7598886579       13.8691704273  MEMB      90              0.0000000000
     11194        90  PVCL2     H4X           -34.5645053911       31.7584496323       14.1866748580  MEMB      90              0.0000000000
     11195        90  PVCL2     H4Y           -36.2530995159       32.4223554791       14.5064847548  MEMB      90              0.0000000000
     11196        90  PVCL2     CD5           -35.6588549117       32.2655280049       12.3752294499  MEMB      90              0.0000000000
     11197        90  PVCL2     H5X           -35.1319708431       33.2431346991       12.3436163253  MEMB      90              0.0000000000
     11198        90  PVCL2     H5Y           -36.7014961480       32.5242572228       12.0918942615  MEMB      90              0.0000000000
     11199        90  PVCL2     CD6           -34.8971433864       31.2593512424       11.4945402540  MEMB      90              0.0000000000
     11200        90  PVCL2     H6X           -34.0247552525       30.8817250603       12.0695694011  MEMB      90              0.0000000000
     11201        90  PVCL2     H6Y           -34.3740269352       31.7728439647       10.6596772982  MEMB      90              0.0000000000
     11202        90  PVCL2     CD7           -35.8560893551       30.2897391456       10.7310391237  MEMB      90              0.0000000000
     11203        90  PVCL2     H7X           -36.8368790516       30.7655072622       10.5165228950  MEMB      90              0.0000000000
     11204        90  PVCL2     H7Y           -36.1396757573       29.4526588724       11.4042373813  MEMB      90              0.0000000000
     11205        90  PVCL2     CD8           -35.2827258055       29.6806329110        9.3803085462  MEMB      90              0.0000000000
     11206        90  PVCL2     H8X           -34.3081647500       29.1545527186        9.4685754219  MEMB      90              0.0000000000
     11207        90  PVCL2     H8Y           -35.2376931705       30.5657624287        8.7103540780  MEMB      90              0.0000000000
     11208        90  PVCL2     CD9           -36.3839434819       28.7548670642        8.7536358275  MEMB      90              0.0000000000
     11209        90  PVCL2     H9X           -37.3679922347       29.2593397332        8.8607631127  MEMB      90              0.0000000000
     11210        90  PVCL2     H9Y           -36.3986687883       27.7904394720        9.3049835492  MEMB      90              0.0000000000
     11211        90  PVCL2     CD10          -36.2540543882       28.5578132887        7.2127977296  MEMB      90              0.0000000000
     11212        90  PVCL2     H10X          -35.6738258061       29.4239368252        6.8287590699  MEMB      90              0.0000000000
     11213        90  PVCL2     H10Y          -37.2352154309       28.5494795636        6.6916694645  MEMB      90              0.0000000000
     11214        90  PVCL2     CD11          -35.5966608254       27.1965711340        6.9765053215  MEMB      90              0.0000000000
     11215        90  PVCL2     H11X          -36.2480469264       26.3906443342        7.3771288900  MEMB      90              0.0000000000
     11216        90  PVCL2     H11Y          -34.6525976000       27.1734216182        7.5617654393  MEMB      90              0.0000000000
     11217        90  PVCL2     CD12          -35.2920748966       26.9281340472        5.4882015006  MEMB      90              0.0000000000
     11218        90  PVCL2     H12X          -36.2654237996       27.0390724143        4.9641735197  MEMB      90              0.0000000000
     11219        90  PVCL2     H12Y          -35.0286331549       25.8513634254        5.4141423812  MEMB      90              0.0000000000
     11220        90  PVCL2     CD13          -34.2144136082       27.7021147972        4.7759520341  MEMB      90              0.0000000000
     11221        90  PVCL2     H13X          -33.3560664202       27.6865916365        5.4811612538  MEMB      90              0.0000000000
     11222        90  PVCL2     H13Y          -34.5344942429       28.7659560277        4.7654060882  MEMB      90              0.0000000000
     11223        90  PVCL2     CD14          -33.7012937338       27.1798590361        3.3772306934  MEMB      90              0.0000000000
     11224        90  PVCL2     H14X          -33.0553472624       27.8860949106        2.8130451975  MEMB      90              0.0000000000
     11225        90  PVCL2     H14Y          -34.6184467951       27.0849667093        2.7574351638  MEMB      90              0.0000000000
     11226        90  PVCL2     CD15          -32.9765495364       25.7992754007        3.4548094521  MEMB      90              0.0000000000
     11227        90  PVCL2     H15X          -33.6267285807       25.1758494655        4.1051394341  MEMB      90              0.0000000000
     11228        90  PVCL2     H15Y          -32.0164048764       25.9554234472        3.9915225933  MEMB      90              0.0000000000
     11229        90  PVCL2     CD16          -32.8558362630       24.9812789051        2.0560377439  MEMB      90              0.0000000000
     11230        90  PVCL2     H16X          -32.2493464434       25.6180003680        1.3770118910  MEMB      90              0.0000000000
     11231        90  PVCL2     H16Y          -33.8198627580       24.9312750129        1.5060616116  MEMB      90              0.0000000000
     11232        90  PVCL2     H16Z          -32.5539271439       23.9361508247        2.2816027117  MEMB      90              0.0000000000
     11233        91  PMPE      N              33.5675456486      -28.3617591513       19.2745429280  MEMB      91              0.0000000000
     11234        91  PMPE      HN1            33.3435114407      -29.3699966710       19.1526170771  MEMB      91              0.0000000000
     11235        91  PMPE      HN2            32.9903525181      -27.9063851339       20.0101262336  MEMB      91              0.0000000000
     11236        91  PMPE      HN3            33.4831153777      -27.8774288871       18.3580846879  MEMB      91              0.0000000000
     11237        91  PMPE      C12            35.0121408618      -28.2155111360       19.6523306219  MEMB      91              0.0000000000
     11238        91  PMPE      H12A           35.6460753128      -28.4320407604       18.7660107029  MEMB      91              0.0000000000
     11239        91  PMPE      H12B           35.2058446676      -28.9075183952       20.4996357089  MEMB      91              0.0000000000
     11240        91  PMPE      C11            35.2634990943      -26.7779599002       20.1207986677  MEMB      91              0.0000000000
     11241        91  PMPE      H11A           36.1180212890      -26.8359385043       20.8284364922  MEMB      91              0.0000000000
     11242        91  PMPE      H11B           34.3940750074      -26.4515659989       20.7306264487  MEMB      91              0.0000000000
     11243        91  PMPE      P              36.8128613015      -25.4218301911       18.5994204566  MEMB      91              0.0000000000
     11244        91  PMPE      O13            37.6853499453      -25.3650795762       19.8176238099  MEMB      91              0.0000000000
     11245        91  PMPE      O14            36.5498225698      -24.2291181719       17.7730008932  MEMB      91              0.0000000000
     11246        91  PMPE      O11            37.2598891187      -26.6473435786       17.6252658668  MEMB      91              0.0000000000
     11247        91  PMPE      O12            35.3990879293      -25.8280464759       19.1370167560  MEMB      91              0.0000000000
     11248        91  PMPE      C1             36.4711184405      -26.9729118573       16.4706319394  MEMB      91              0.0000000000
     11249        91  PMPE      HA             36.5353351953      -26.0923871044       15.7961889259  MEMB      91              0.0000000000
     11250        91  PMPE      HB             35.3894848203      -27.1553584996       16.6469918304  MEMB      91              0.0000000000
     11251        91  PMPE      C2             37.0532541203      -28.2049068445       15.7895369662  MEMB      91              0.0000000000
     11252        91  PMPE      HS             36.9842988826      -29.0911565660       16.4559659378  MEMB      91              0.0000000000
     11253        91  PMPE      O21            38.4419104241      -27.8151443548       15.5266298937  MEMB      91              0.0000000000
     11254        91  PMPE      C21            39.2294140285      -28.6023574325       14.8306323262  MEMB      91              0.0000000000
     11255        91  PMPE      O22            38.9487785652      -29.6970863006       14.3253298436  MEMB      91              0.0000000000
     11256        91  PMPE      C22            40.6084004017      -27.9389932032       14.9854452623  MEMB      91              0.0000000000
     11257        91  PMPE      H2R            41.3040475082      -28.3305667521       15.7581459618  MEMB      91              0.0000000000
     11258        91  PMPE      H2S            40.5894965122      -26.8590195543       15.2454842532  MEMB      91              0.0000000000
     11259        91  PMPE      C3             36.2538457135      -28.5848410741       14.4854358685  MEMB      91              0.0000000000
     11260        91  PMPE      HX             35.2335405259      -28.8242110427       14.8542179532  MEMB      91              0.0000000000
     11261        91  PMPE      HY             36.7453893966      -29.3973722067       13.9088085792  MEMB      91              0.0000000000
     11262        91  PMPE      O31            36.0699220960      -27.3746630810       13.6837645845  MEMB      91              0.0000000000
     11263        91  PMPE      C31            34.9313868958      -27.3073963056       12.9874733907  MEMB      91              0.0000000000
     11264        91  PMPE      O32            34.2201978328      -28.2758873980       12.6396223962  MEMB      91              0.0000000000
     11265        91  PMPE      C32            34.5906613486      -25.8781896465       12.5231345389  MEMB      91              0.0000000000
     11266        91  PMPE      H2X            34.3130635418      -25.2754424006       13.4141770411  MEMB      91              0.0000000000
     11267        91  PMPE      H2Y            33.7272579757      -25.9222299024       11.8253408843  MEMB      91              0.0000000000
     11268        91  PMPE      C23            41.2976386873      -27.9247455035       13.6337107388  MEMB      91              0.0000000000
     11269        91  PMPE      H3R            41.2265342751      -28.8713424801       13.0564595890  MEMB      91              0.0000000000
     11270        91  PMPE      H3S            42.4035579573      -27.8771381173       13.7285651218  MEMB      91              0.0000000000
     11271        91  PMPE      C24            40.7398675809      -26.7852779027       12.8356108022  MEMB      91              0.0000000000
     11272        91  PMPE      H4R            41.3130819452      -25.9254772575       13.2436414285  MEMB      91              0.0000000000
     11273        91  PMPE      H4S            39.6617731382      -26.5822908443       13.0111949484  MEMB      91              0.0000000000
     11274        91  PMPE      C25            41.1333780661      -26.8190108095       11.3907957213  MEMB      91              0.0000000000
     11275        91  PMPE      H5R            42.2202560619      -26.9010479573       11.1756513706  MEMB      91              0.0000000000
     11276        91  PMPE      H5S            40.7050912751      -25.8974778329       10.9417204474  MEMB      91              0.0000000000
     11277        91  PMPE      C26            40.4932090791      -28.0760673213       10.6610091297  MEMB      91              0.0000000000
     11278        91  PMPE      H6R            39.4397880284      -28.1492761490       11.0063570258  MEMB      91              0.0000000000
     11279        91  PMPE      H6S            40.9990817255      -29.0118481606       10.9815213320  MEMB      91              0.0000000000
     11280        91  PMPE      C27            40.6884414571      -28.1040736350        9.1049548407  MEMB      91              0.0000000000
     11281        91  PMPE      H7R            40.1058711314      -28.9385281520        8.6592888134  MEMB      91              0.0000000000
     11282        91  PMPE      H7S            41.7717861113      -28.2590567947        8.9134728966  MEMB      91              0.0000000000
     11283        91  PMPE      C28            40.1477878640      -26.8590404408        8.3252026072  MEMB      91              0.0000000000
     11284        91  PMPE      H8R            40.9829218066      -26.1264847346        8.3098955386  MEMB      91              0.0000000000
     11285        91  PMPE      H8S            39.3019251534      -26.4421540898        8.9126057381  MEMB      91              0.0000000000
     11286        91  PMPE      C29            39.6650499327      -27.1424721010        6.8805947055  MEMB      91              0.0000000000
     11287        91  PMPE      H9R            39.0963669102      -28.0798112626        6.7008284544  MEMB      91              0.0000000000
     11288        91  PMPE      C217           40.6687216879      -26.7146480432        5.7820694442  MEMB      91              0.0000000000
     11289        91  PMPE      H17R           40.6829834910      -27.3439822128        4.9008067457  MEMB      91              0.0000000000
     11290        91  PMPE      H17S           41.5329579984      -26.1021328244        6.0074792949  MEMB      91              0.0000000000
     11291        91  PMPE      C210           39.3488963967      -25.9927120043        6.0433279976  MEMB      91              0.0000000000
     11292        91  PMPE      H10R           38.7468774460      -26.2796075811        5.1547422095  MEMB      91              0.0000000000
     11293        91  PMPE      C211           39.2056133803      -24.5493885928        6.5400978078  MEMB      91              0.0000000000
     11294        91  PMPE      H11R           40.1788334540      -24.0309927516        6.6758525130  MEMB      91              0.0000000000
     11295        91  PMPE      H11S           38.6852557963      -24.4799742880        7.5192459744  MEMB      91              0.0000000000
     11296        91  PMPE      C212           38.1558216533      -23.6811273706        5.7451210418  MEMB      91              0.0000000000
     11297        91  PMPE      H12R           37.6216573908      -22.9354464853        6.3719771844  MEMB      91              0.0000000000
     11298        91  PMPE      H12S           37.4097219679      -24.3208991006        5.2270969808  MEMB      91              0.0000000000
     11299        91  PMPE      C213           38.8161140520      -22.7515318699        4.7415849955  MEMB      91              0.0000000000
     11300        91  PMPE      H13R           39.0310301973      -23.4554032735        3.9093011644  MEMB      91              0.0000000000
     11301        91  PMPE      H13S           39.6961896334      -22.3155325233        5.2609047562  MEMB      91              0.0000000000
     11302        91  PMPE      C214           37.9350501360      -21.6444147685        4.1738892443  MEMB      91              0.0000000000
     11303        91  PMPE      H14R           38.4832240824      -21.1642106005        3.3353000593  MEMB      91              0.0000000000
     11304        91  PMPE      H14S           37.7301624130      -20.8108981628        4.8792906406  MEMB      91              0.0000000000
     11305        91  PMPE      C215           36.5517351916      -22.0801700949        3.5022340130  MEMB      91              0.0000000000
     11306        91  PMPE      H15R           36.0594321881      -21.1010324212        3.3198919950  MEMB      91              0.0000000000
     11307        91  PMPE      H15S           35.8889524082      -22.7185344002        4.1247537814  MEMB      91              0.0000000000
     11308        91  PMPE      C216           36.7037345672      -22.7797396287        2.0907398140  MEMB      91              0.0000000000
     11309        91  PMPE      H16R           35.6948339281      -22.9064061421        1.6430826338  MEMB      91              0.0000000000
     11310        91  PMPE      H16S           37.2234559370      -22.0949336220        1.3869980052  MEMB      91              0.0000000000
     11311        91  PMPE      H16T           37.2243907259      -23.7596724261        2.1452355550  MEMB      91              0.0000000000
     11312        91  PMPE      C33            35.8286076598      -25.2251456446       11.9269560904  MEMB      91              0.0000000000
     11313        91  PMPE      H3X            36.7309296701      -25.4341099470       12.5405273992  MEMB      91              0.0000000000
     11314        91  PMPE      H3Y            35.6815647326      -24.1239254779       11.9232826384  MEMB      91              0.0000000000
     11315        91  PMPE      C34            36.0518170718      -25.6979645579       10.4934408993  MEMB      91              0.0000000000
     11316        91  PMPE      H4X            36.1510137951      -26.8044314665       10.5079986393  MEMB      91              0.0000000000
     11317        91  PMPE      H4Y            36.9837436998      -25.3067275620       10.0321735580  MEMB      91              0.0000000000
     11318        91  PMPE      C35            35.0031139141      -25.3002702367        9.5105019873  MEMB      91              0.0000000000
     11319        91  PMPE      H5X            34.7637709456      -24.2157614913        9.5401131951  MEMB      91              0.0000000000
     11320        91  PMPE      H5Y            34.1258407284      -25.9416503839        9.7414657804  MEMB      91              0.0000000000
     11321        91  PMPE      C36            35.3419541430      -25.7933339692        8.0496098478  MEMB      91              0.0000000000
     11322        91  PMPE      H6X            35.6790251863      -26.8350934448        8.2378682146  MEMB      91              0.0000000000
     11323        91  PMPE      H6Y            36.2238123386      -25.2035551238        7.7197485104  MEMB      91              0.0000000000
     11324        91  PMPE      C37            34.2208897548      -25.6910448330        7.0027839155  MEMB      91              0.0000000000
     11325        91  PMPE      H7X            33.8765779545      -24.6495112517        7.1787901557  MEMB      91              0.0000000000
     11326        91  PMPE      H7Y            33.3983169995      -26.3933834728        7.2565858691  MEMB      91              0.0000000000
     11327        91  PMPE      C38            34.6692085570      -25.9664852977        5.5746849019  MEMB      91              0.0000000000
     11328        91  PMPE      H8X            35.4884659249      -25.2495588817        5.3529756516  MEMB      91              0.0000000000
     11329        91  PMPE      H8Y            33.8136799805      -25.7487135309        4.9001727263  MEMB      91              0.0000000000
     11330        91  PMPE      C39            34.9727046492      -27.4589820998        5.3501508635  MEMB      91              0.0000000000
     11331        91  PMPE      H9X            34.0114053724      -27.9440435788        5.6239034835  MEMB      91              0.0000000000
     11332        91  PMPE      H9Y            35.8066484049      -27.8625353194        5.9633417904  MEMB      91              0.0000000000
     11333        91  PMPE      C310           35.3518241761      -27.7135477817        3.8892722798  MEMB      91              0.0000000000
     11334        91  PMPE      H10X           34.7460579747      -27.1754962777        3.1290955000  MEMB      91              0.0000000000
     11335        91  PMPE      H10Y           35.1078551395      -28.7943214656        3.8072467092  MEMB      91              0.0000000000
     11336        91  PMPE      C311           36.8665011437      -27.7451831868        3.6733246040  MEMB      91              0.0000000000
     11337        91  PMPE      H11X           37.3381934846      -27.8222256619        4.6762655980  MEMB      91              0.0000000000
     11338        91  PMPE      H11Y           37.1937424682      -26.7417753344        3.3263272644  MEMB      91              0.0000000000
     11339        91  PMPE      C312           37.3855115193      -28.7951057302        2.6930804588  MEMB      91              0.0000000000
     11340        91  PMPE      H12X           36.6895046228      -28.8193612346        1.8274566902  MEMB      91              0.0000000000
     11341        91  PMPE      H12Y           37.1843133296      -29.7463279668        3.2306840590  MEMB      91              0.0000000000
     11342        91  PMPE      C313           38.8854690540      -28.6512346477        2.3151839838  MEMB      91              0.0000000000
     11343        91  PMPE      H13X           39.0523351833      -29.6423545954        1.8417291119  MEMB      91              0.0000000000
     11344        91  PMPE      H13Y           39.4208822867      -28.6726160815        3.2884236883  MEMB      91              0.0000000000
     11345        91  PMPE      C314           39.2941691410      -27.4862465048        1.4453802990  MEMB      91              0.0000000000
     11346        91  PMPE      H14X           40.3707685291      -27.6728725674        1.2443215433  MEMB      91              0.0000000000
     11347        91  PMPE      H14Y           39.1479351069      -26.5113078741        1.9576605321  MEMB      91              0.0000000000
     11348        91  PMPE      C315           38.6027956595      -27.3440452651        0.0634696141  MEMB      91              0.0000000000
     11349        91  PMPE      H15X           38.8590138331      -26.3404151897       -0.3382754975  MEMB      91              0.0000000000
     11350        91  PMPE      H15Y           37.4950358004      -27.3071270830        0.1398007322  MEMB      91              0.0000000000
     11351        91  PMPE      C316           39.0397015701      -28.4045765506       -1.0469498334  MEMB      91              0.0000000000
     11352        91  PMPE      H16X           38.6755189024      -29.3936550039       -0.6956434674  MEMB      91              0.0000000000
     11353        91  PMPE      H16Y           40.1080719033      -28.4623151137       -1.3462350118  MEMB      91              0.0000000000
     11354        91  PMPE      H16Z           38.3818666037      -28.2306929615       -1.9252082685  MEMB      91              0.0000000000
     11355        92  PMPE      N              39.2071996457       21.1538650572       21.8265401106  MEMB      92              0.0000000000
     11356        92  PMPE      HN1            39.8522825291       21.9674227565       21.8864734785  MEMB      92              0.0000000000
     11357        92  PMPE      HN2            38.2808035474       21.5708597897       21.6040414345  MEMB      92              0.0000000000
     11358        92  PMPE      HN3            39.1651846276       20.6443820810       22.7322232193  MEMB      92              0.0000000000
     11359        92  PMPE      C12            39.6932562713       20.2788440206       20.7277379428  MEMB      92              0.0000000000
     11360        92  PMPE      H12A           39.1111397284       19.3441151321       20.8751934856  MEMB      92              0.0000000000
     11361        92  PMPE      H12B           40.7559821441       20.0551646065       20.9620499973  MEMB      92              0.0000000000
     11362        92  PMPE      C11            39.6349924376       20.8172153408       19.3011023694  MEMB      92              0.0000000000
     11363        92  PMPE      H11A           38.6693004792       20.5002367188       18.8524549630  MEMB      92              0.0000000000
     11364        92  PMPE      H11B           40.3137297976       20.2024024368       18.6721017099  MEMB      92              0.0000000000
     11365        92  PMPE      P              39.5825512487       23.0343135425       17.9738035366  MEMB      92              0.0000000000
     11366        92  PMPE      O13            40.1988888646       24.3419948596       18.2288826869  MEMB      92              0.0000000000
     11367        92  PMPE      O14            38.1237065347       22.9148300030       17.8303361723  MEMB      92              0.0000000000
     11368        92  PMPE      O11            40.4014265108       22.2424242438       16.8677069579  MEMB      92              0.0000000000
     11369        92  PMPE      O12            39.9882968895       22.2013401578       19.2438902231  MEMB      92              0.0000000000
     11370        92  PMPE      C1             39.7235557652       21.6620463102       15.8255795099  MEMB      92              0.0000000000
     11371        92  PMPE      HA             38.6628488907       21.3845253519       16.0050341184  MEMB      92              0.0000000000
     11372        92  PMPE      HB             40.3870840026       20.8100655243       15.5644663048  MEMB      92              0.0000000000
     11373        92  PMPE      C2             39.7333164391       22.6973496409       14.5649570336  MEMB      92              0.0000000000
     11374        92  PMPE      HS             39.6119744415       22.0797819278       13.6494203439  MEMB      92              0.0000000000
     11375        92  PMPE      O21            41.0295563040       23.3782059152       14.5356620858  MEMB      92              0.0000000000
     11376        92  PMPE      C21            42.0387579359       22.6167277293       14.1816161954  MEMB      92              0.0000000000
     11377        92  PMPE      O22            42.0200139965       21.5629467706       13.5825422874  MEMB      92              0.0000000000
     11378        92  PMPE      C22            43.3503966424       23.2862121323       14.6716492912  MEMB      92              0.0000000000
     11379        92  PMPE      H2R            44.0693184001       22.7676463966       14.0019014372  MEMB      92              0.0000000000
     11380        92  PMPE      H2S            43.5398872583       23.0618331765       15.7431287747  MEMB      92              0.0000000000
     11381        92  PMPE      C3             38.5364846302       23.7171491252       14.7069853857  MEMB      92              0.0000000000
     11382        92  PMPE      HX             38.9047167624       24.5008953452       15.4030227184  MEMB      92              0.0000000000
     11383        92  PMPE      HY             37.7158288165       23.1402262122       15.1844836268  MEMB      92              0.0000000000
     11384        92  PMPE      O31            38.2415015503       24.2618685688       13.3918266057  MEMB      92              0.0000000000
     11385        92  PMPE      C31            37.6770930938       23.4247250692       12.5627763408  MEMB      92              0.0000000000
     11386        92  PMPE      O32            37.1603440158       22.3480882746       12.7485074193  MEMB      92              0.0000000000
     11387        92  PMPE      C32            37.7870674235       24.0845299572       11.1892691868  MEMB      92              0.0000000000
     11388        92  PMPE      H2X            38.5923001599       24.8363410273       11.0453905390  MEMB      92              0.0000000000
     11389        92  PMPE      H2Y            36.8062397679       24.5942607147       11.0775874260  MEMB      92              0.0000000000
     11390        92  PMPE      C23            43.3822061091       24.7647901867       14.3550433289  MEMB      92              0.0000000000
     11391        92  PMPE      H3R            44.3394249257       25.0617370139       14.8344968943  MEMB      92              0.0000000000
     11392        92  PMPE      H3S            42.4965711897       25.1352566453       14.9142628189  MEMB      92              0.0000000000
     11393        92  PMPE      C24            43.2380589054       25.1939830896       12.7976889972  MEMB      92              0.0000000000
     11394        92  PMPE      H4R            43.1032702993       26.2947732137       12.7312488361  MEMB      92              0.0000000000
     11395        92  PMPE      H4S            42.2276868472       24.9362851282       12.4142036776  MEMB      92              0.0000000000
     11396        92  PMPE      C25            44.3031899398       24.5394377339       11.7991815830  MEMB      92              0.0000000000
     11397        92  PMPE      H5R            44.3567070291       23.4345025336       11.9020169250  MEMB      92              0.0000000000
     11398        92  PMPE      H5S            45.2905442561       25.0165791641       11.9774761802  MEMB      92              0.0000000000
     11399        92  PMPE      C26            44.0985143750       24.9594791707       10.3105867432  MEMB      92              0.0000000000
     11400        92  PMPE      H6R            45.0915103628       24.8065720451        9.8363509259  MEMB      92              0.0000000000
     11401        92  PMPE      H6S            43.8570184291       26.0417672054       10.2423726047  MEMB      92              0.0000000000
     11402        92  PMPE      C27            42.9527407032       24.1730122346        9.5130530752  MEMB      92              0.0000000000
     11403        92  PMPE      H7R            41.9097201217       24.1257817783        9.8927871351  MEMB      92              0.0000000000
     11404        92  PMPE      H7S            43.3500318777       23.1438635933        9.3813937432  MEMB      92              0.0000000000
     11405        92  PMPE      C28            42.7630891655       24.7601001531        8.1207546660  MEMB      92              0.0000000000
     11406        92  PMPE      H8R            43.8225087123       25.0033457847        7.8910099108  MEMB      92              0.0000000000
     11407        92  PMPE      H8S            42.1213228105       25.6668762149        8.1353872943  MEMB      92              0.0000000000
     11408        92  PMPE      C29            42.1332526366       23.8403459215        7.1144647501  MEMB      92              0.0000000000
     11409        92  PMPE      H9R            41.3143100310       23.1517361908        7.4135812305  MEMB      92              0.0000000000
     11410        92  PMPE      C217           43.1845100350       22.9479919598        6.4066604327  MEMB      92              0.0000000000
     11411        92  PMPE      H17R           42.7321431831       22.0045326607        6.1271291217  MEMB      92              0.0000000000
     11412        92  PMPE      H17S           44.1820879286       23.3473801614        6.5416286949  MEMB      92              0.0000000000
     11413        92  PMPE      C210           42.2838714873       24.0072850686        5.6726430397  MEMB      92              0.0000000000
     11414        92  PMPE      H10R           41.4820170155       23.5630497201        5.0449445878  MEMB      92              0.0000000000
     11415        92  PMPE      C211           43.1355152593       25.1215219434        5.0383633769  MEMB      92              0.0000000000
     11416        92  PMPE      H11R           43.9333886068       25.5803748297        5.6605962380  MEMB      92              0.0000000000
     11417        92  PMPE      H11S           42.4440868014       25.9605538643        4.8097309691  MEMB      92              0.0000000000
     11418        92  PMPE      C212           43.7635183040       24.7634420480        3.6868118611  MEMB      92              0.0000000000
     11419        92  PMPE      H12R           44.3921317327       23.8482255651        3.6475053815  MEMB      92              0.0000000000
     11420        92  PMPE      H12S           44.5635986959       25.4852798506        3.4163629309  MEMB      92              0.0000000000
     11421        92  PMPE      C213           42.8991965396       24.6292400282        2.4547798959  MEMB      92              0.0000000000
     11422        92  PMPE      H13R           42.2832222886       25.5523346101        2.4019300079  MEMB      92              0.0000000000
     11423        92  PMPE      H13S           42.1977982044       23.7682511568        2.4222294952  MEMB      92              0.0000000000
     11424        92  PMPE      C214           43.7081633812       24.6901908853        1.0800267398  MEMB      92              0.0000000000
     11425        92  PMPE      H14R           44.3082083361       23.7556556148        1.0498428942  MEMB      92              0.0000000000
     11426        92  PMPE      H14S           44.2414405219       25.6643479292        1.0491386471  MEMB      92              0.0000000000
     11427        92  PMPE      C215           42.8188398636       24.5636701787       -0.1633013501  MEMB      92              0.0000000000
     11428        92  PMPE      H15R           42.0188071234       25.3339735965       -0.1332791592  MEMB      92              0.0000000000
     11429        92  PMPE      H15S           42.2645849757       23.6028979418       -0.0997443116  MEMB      92              0.0000000000
     11430        92  PMPE      C216           43.5762618460       24.6389530887       -1.4760706331  MEMB      92              0.0000000000
     11431        92  PMPE      H16R           43.9257671176       25.6745818611       -1.6751688018  MEMB      92              0.0000000000
     11432        92  PMPE      H16S           44.3866442076       23.8789880637       -1.4686729410  MEMB      92              0.0000000000
     11433        92  PMPE      H16T           42.8590171040       24.3946497925       -2.2885942006  MEMB      92              0.0000000000
     11434        92  PMPE      C33            37.8998932301       23.0123998011       10.1132278210  MEMB      92              0.0000000000
     11435        92  PMPE      H3X            36.8637116408       22.6671889750        9.9095660748  MEMB      92              0.0000000000
     11436        92  PMPE      H3Y            38.5318553198       22.1480959043       10.4097468889  MEMB      92              0.0000000000
     11437        92  PMPE      C34            38.5832169576       23.5682976282        8.8785863338  MEMB      92              0.0000000000
     11438        92  PMPE      H4X            38.8547736539       22.7732781885        8.1515910803  MEMB      92              0.0000000000
     11439        92  PMPE      H4Y            39.4962700276       24.0734812866        9.2599584557  MEMB      92              0.0000000000
     11440        92  PMPE      C35            37.8992263999       24.7652850467        8.1100793373  MEMB      92              0.0000000000
     11441        92  PMPE      H5X            38.6070593077       25.0075085640        7.2887260772  MEMB      92              0.0000000000
     11442        92  PMPE      H5Y            37.6502272332       25.6824441215        8.6855266806  MEMB      92              0.0000000000
     11443        92  PMPE      C36            36.5351458346       24.3131268645        7.5243545158  MEMB      92              0.0000000000
     11444        92  PMPE      H6X            35.8799595104       24.1730669769        8.4106016045  MEMB      92              0.0000000000
     11445        92  PMPE      H6Y            36.7123850066       23.3023623247        7.0986052063  MEMB      92              0.0000000000
     11446        92  PMPE      C37            35.9098295579       25.2896062613        6.5406983830  MEMB      92              0.0000000000
     11447        92  PMPE      H7X            35.5199476531       26.2676509752        6.8952994990  MEMB      92              0.0000000000
     11448        92  PMPE      H7Y            35.0397066570       24.7952063099        6.0582298430  MEMB      92              0.0000000000
     11449        92  PMPE      C38            36.7921517626       25.7601109309        5.3625025380  MEMB      92              0.0000000000
     11450        92  PMPE      H8X            37.6961204991       26.3190902840        5.6860818829  MEMB      92              0.0000000000
     11451        92  PMPE      H8Y            36.1490150736       26.4117173001        4.7331328573  MEMB      92              0.0000000000
     11452        92  PMPE      C39            37.2228706358       24.5493890824        4.5183227968  MEMB      92              0.0000000000
     11453        92  PMPE      H9X            36.3132076394       23.9500435760        4.3001048888  MEMB      92              0.0000000000
     11454        92  PMPE      H9Y            37.8879399542       23.9074591356        5.1347077359  MEMB      92              0.0000000000
     11455        92  PMPE      C310           37.9662531605       24.9046806196        3.2199969178  MEMB      92              0.0000000000
     11456        92  PMPE      H10X           38.8349920125       25.5450116644        3.4837958730  MEMB      92              0.0000000000
     11457        92  PMPE      H10Y           37.3120274896       25.5508910873        2.5965225190  MEMB      92              0.0000000000
     11458        92  PMPE      C311           38.3558854235       23.6316013768        2.4774050803  MEMB      92              0.0000000000
     11459        92  PMPE      H11X           38.8930605882       23.9008235980        1.5429106683  MEMB      92              0.0000000000
     11460        92  PMPE      H11Y           37.4518674569       23.1541854969        2.0424957911  MEMB      92              0.0000000000
     11461        92  PMPE      C312           39.3002269153       22.6654758169        3.1801466499  MEMB      92              0.0000000000
     11462        92  PMPE      H12X           38.8878016211       22.3779298862        4.1708755331  MEMB      92              0.0000000000
     11463        92  PMPE      H12Y           40.2542869271       23.2273295607        3.2718580285  MEMB      92              0.0000000000
     11464        92  PMPE      C313           39.7394691812       21.3195123150        2.3767901286  MEMB      92              0.0000000000
     11465        92  PMPE      H13X           38.7981909133       20.7296450437        2.3574894215  MEMB      92              0.0000000000
     11466        92  PMPE      H13Y           40.5571855929       20.8476071975        2.9624237279  MEMB      92              0.0000000000
     11467        92  PMPE      C314           40.2915973161       21.5266475169        0.9671257743  MEMB      92              0.0000000000
     11468        92  PMPE      H14X           40.9898239504       20.7227347042        0.6500688702  MEMB      92              0.0000000000
     11469        92  PMPE      H14Y           40.9590483774       22.4146757611        0.9517797760  MEMB      92              0.0000000000
     11470        92  PMPE      C315           39.2764691178       21.5941807976       -0.1464403767  MEMB      92              0.0000000000
     11471        92  PMPE      H15X           38.7540792247       22.5723596074       -0.0786465526  MEMB      92              0.0000000000
     11472        92  PMPE      H15Y           38.6174656267       20.7815183241        0.2272107373  MEMB      92              0.0000000000
     11473        92  PMPE      C316           39.7012873289       21.2687655732       -1.6247344064  MEMB      92              0.0000000000
     11474        92  PMPE      H16X           40.6815788104       21.7532567775       -1.8212481332  MEMB      92              0.0000000000
     11475        92  PMPE      H16Y           38.9279084763       21.6935226211       -2.2998548665  MEMB      92              0.0000000000
     11476        92  PMPE      H16Z           39.7278118098       20.1589750777       -1.6692632279  MEMB      92              0.0000000000
     11477        93  PMPE      N             -32.6655827208      -28.9346630987       20.0920877346  MEMB      93              0.0000000000
     11478        93  PMPE      HN1           -32.9208001142      -29.9276082311       19.9173765922  MEMB      93              0.0000000000
     11479        93  PMPE      HN2           -32.5290292354      -28.3304246207       19.2567142262  MEMB      93              0.0000000000
     11480        93  PMPE      HN3           -31.7648252209      -28.8569494660       20.6060884585  MEMB      93              0.0000000000
     11481        93  PMPE      C12           -33.7265548323      -28.3675731087       20.9120431303  MEMB      93              0.0000000000
     11482        93  PMPE      H12A          -33.2985478475      -27.4379748102       21.3444531553  MEMB      93              0.0000000000
     11483        93  PMPE      H12B          -33.9487173155      -29.0694328713       21.7441233526  MEMB      93              0.0000000000
     11484        93  PMPE      C11           -35.0824643106      -28.0228976841       20.1441157539  MEMB      93              0.0000000000
     11485        93  PMPE      H11A          -34.7968237795      -27.3065932997       19.3443417761  MEMB      93              0.0000000000
     11486        93  PMPE      H11B          -35.8635831807      -27.6879047223       20.8596254117  MEMB      93              0.0000000000
     11487        93  PMPE      P             -36.3079756730      -29.2027772746       18.1652764536  MEMB      93              0.0000000000
     11488        93  PMPE      O13           -37.0065015030      -27.9409870154       17.8906579013  MEMB      93              0.0000000000
     11489        93  PMPE      O14           -37.2496481451      -30.3909996727       18.1016231818  MEMB      93              0.0000000000
     11490        93  PMPE      O11           -35.1786780035      -29.4860012982       17.1182808058  MEMB      93              0.0000000000
     11491        93  PMPE      O12           -35.6587675887      -29.1934400496       19.5759150378  MEMB      93              0.0000000000
     11492        93  PMPE      C1            -34.4202119472      -30.7075494289       17.1221559579  MEMB      93              0.0000000000
     11493        93  PMPE      HA            -34.9551220198      -31.5433546378       17.6217777997  MEMB      93              0.0000000000
     11494        93  PMPE      HB            -33.4731463199      -30.5866984605       17.6902956229  MEMB      93              0.0000000000
     11495        93  PMPE      C2            -34.1217076565      -31.1343871335       15.6816069606  MEMB      93              0.0000000000
     11496        93  PMPE      HS            -33.3432495252      -31.9263004242       15.7162085677  MEMB      93              0.0000000000
     11497        93  PMPE      O21           -33.8893571042      -29.9851859095       14.8297731609  MEMB      93              0.0000000000
     11498        93  PMPE      C21           -32.5721065908      -29.7145804249       14.7878377894  MEMB      93              0.0000000000
     11499        93  PMPE      O22           -31.7415562357      -30.5199016246       15.2196782787  MEMB      93              0.0000000000
     11500        93  PMPE      C22           -32.3816089362      -28.3722930880       14.2539178495  MEMB      93              0.0000000000
     11501        93  PMPE      H2R           -31.7821514577      -27.8394243848       15.0226980201  MEMB      93              0.0000000000
     11502        93  PMPE      H2S           -33.3946737791      -27.9201642018       14.1939160361  MEMB      93              0.0000000000
     11503        93  PMPE      C3            -35.3600888697      -31.8530545676       15.1314420853  MEMB      93              0.0000000000
     11504        93  PMPE      HX            -36.2853477492      -31.3367399648       15.4655623366  MEMB      93              0.0000000000
     11505        93  PMPE      HY            -35.3549405842      -32.8653127544       15.5892929966  MEMB      93              0.0000000000
     11506        93  PMPE      O31           -35.3106120357      -31.9443456001       13.6471398645  MEMB      93              0.0000000000
     11507        93  PMPE      C31           -36.2410112456      -31.1667349163       12.9667262322  MEMB      93              0.0000000000
     11508        93  PMPE      O32           -37.0353309812      -30.4630035258       13.5088041858  MEMB      93              0.0000000000
     11509        93  PMPE      C32           -36.1402057022      -31.4521215530       11.4099437576  MEMB      93              0.0000000000
     11510        93  PMPE      H2X           -37.0507701002      -31.0840931280       10.8905705287  MEMB      93              0.0000000000
     11511        93  PMPE      H2Y           -36.0223782162      -32.5454732531       11.2517684697  MEMB      93              0.0000000000
     11512        93  PMPE      C23           -31.7716582795      -28.4148136192       12.8822005791  MEMB      93              0.0000000000
     11513        93  PMPE      H3R           -31.8029776945      -27.3987439262       12.4339350168  MEMB      93              0.0000000000
     11514        93  PMPE      H3S           -32.4001384822      -29.0321520594       12.2052763012  MEMB      93              0.0000000000
     11515        93  PMPE      C24           -30.2665629081      -28.9842086774       12.7533789851  MEMB      93              0.0000000000
     11516        93  PMPE      H4R           -30.2193202742      -30.0816683697       12.9197264165  MEMB      93              0.0000000000
     11517        93  PMPE      H4S           -29.6819895032      -28.4936670926       13.5608215633  MEMB      93              0.0000000000
     11518        93  PMPE      C25           -29.6717100606      -28.6619201359       11.3668922890  MEMB      93              0.0000000000
     11519        93  PMPE      H5R           -28.6243695605      -29.0192934863       11.2684893738  MEMB      93              0.0000000000
     11520        93  PMPE      H5S           -29.5559028478      -27.5635025257       11.2469397157  MEMB      93              0.0000000000
     11521        93  PMPE      C26           -30.5100489063      -28.9803131961       10.0723638791  MEMB      93              0.0000000000
     11522        93  PMPE      H6R           -30.0979503689      -28.4467884385        9.1892739419  MEMB      93              0.0000000000
     11523        93  PMPE      H6S           -31.5402733090      -28.5892203980       10.2138021710  MEMB      93              0.0000000000
     11524        93  PMPE      C27           -30.6913024965      -30.4734108289        9.7906684244  MEMB      93              0.0000000000
     11525        93  PMPE      H7R           -31.4453900670      -30.9755111195       10.4337618990  MEMB      93              0.0000000000
     11526        93  PMPE      H7S           -29.7457207752      -31.0386639914        9.9344911749  MEMB      93              0.0000000000
     11527        93  PMPE      C28           -31.2345242345      -30.7148714044        8.3820215307  MEMB      93              0.0000000000
     11528        93  PMPE      H8R           -30.6160189365      -30.0359706123        7.7568294357  MEMB      93              0.0000000000
     11529        93  PMPE      H8S           -32.3000553161      -30.4204894930        8.2710977505  MEMB      93              0.0000000000
     11530        93  PMPE      C29           -30.9661649352      -32.1628611838        7.9222445454  MEMB      93              0.0000000000
     11531        93  PMPE      H9R           -31.2249514906      -33.0258988028        8.5722578637  MEMB      93              0.0000000000
     11532        93  PMPE      C217          -29.5299689274      -32.2806678568        7.2622472079  MEMB      93              0.0000000000
     11533        93  PMPE      H17R          -28.9864945122      -33.1517146527        7.6069241837  MEMB      93              0.0000000000
     11534        93  PMPE      H17S          -29.0656399324      -31.4408808851        6.7602069717  MEMB      93              0.0000000000
     11535        93  PMPE      C210          -30.8453764664      -32.4267570182        6.4209171444  MEMB      93              0.0000000000
     11536        93  PMPE      H10R          -31.1332098837      -33.4314114923        6.0439005346  MEMB      93              0.0000000000
     11537        93  PMPE      C211          -31.2605685666      -31.3068181594        5.4532942831  MEMB      93              0.0000000000
     11538        93  PMPE      H11R          -30.9468587388      -31.7159280247        4.4691522600  MEMB      93              0.0000000000
     11539        93  PMPE      H11S          -30.6797192171      -30.3738000276        5.6158133092  MEMB      93              0.0000000000
     11540        93  PMPE      C212          -32.8320915853      -31.2503156148        5.3881671391  MEMB      93              0.0000000000
     11541        93  PMPE      H12R          -33.2245251561      -30.7648090187        6.3071882424  MEMB      93              0.0000000000
     11542        93  PMPE      H12S          -33.1861024282      -32.3027800519        5.4244496725  MEMB      93              0.0000000000
     11543        93  PMPE      C213          -33.4548645803      -30.6055871962        4.0975924796  MEMB      93              0.0000000000
     11544        93  PMPE      H13R          -33.0092784284      -29.6371164251        3.7848014983  MEMB      93              0.0000000000
     11545        93  PMPE      H13S          -34.5574269851      -30.4814322871        4.1547154195  MEMB      93              0.0000000000
     11546        93  PMPE      C214          -33.2369703850      -31.5367610347        2.8730543605  MEMB      93              0.0000000000
     11547        93  PMPE      H14R          -33.7451548045      -32.4875117797        3.1416488200  MEMB      93              0.0000000000
     11548        93  PMPE      H14S          -32.1676568738      -31.8380226506        2.8616208681  MEMB      93              0.0000000000
     11549        93  PMPE      C215          -33.6435691749      -31.0401218911        1.5327332090  MEMB      93              0.0000000000
     11550        93  PMPE      H15R          -33.2440084686      -31.6581015704        0.7004036971  MEMB      93              0.0000000000
     11551        93  PMPE      H15S          -33.1760068595      -30.0336986218        1.4796422914  MEMB      93              0.0000000000
     11552        93  PMPE      C216          -35.1234524956      -30.9256499270        1.3849504861  MEMB      93              0.0000000000
     11553        93  PMPE      H16R          -35.5795764079      -30.1492833892        2.0357410623  MEMB      93              0.0000000000
     11554        93  PMPE      H16S          -35.4158378891      -30.6948377811        0.3382619291  MEMB      93              0.0000000000
     11555        93  PMPE      H16T          -35.5925241652      -31.9032561269        1.6269841298  MEMB      93              0.0000000000
     11556        93  PMPE      C33           -35.0004571259      -30.7471477005       10.9105121338  MEMB      93              0.0000000000
     11557        93  PMPE      H3X           -34.7931761127      -31.3312812452        9.9884798195  MEMB      93              0.0000000000
     11558        93  PMPE      H3Y           -34.1273828779      -30.7405315236       11.5975483430  MEMB      93              0.0000000000
     11559        93  PMPE      C34           -35.1161243498      -29.2364625926       10.5081445554  MEMB      93              0.0000000000
     11560        93  PMPE      H4X           -34.0334732257      -28.9894447099       10.4739522003  MEMB      93              0.0000000000
     11561        93  PMPE      H4Y           -35.7218814075      -28.6384219452       11.2220966502  MEMB      93              0.0000000000
     11562        93  PMPE      C35           -35.5215561524      -29.0883937976        9.0564280343  MEMB      93              0.0000000000
     11563        93  PMPE      H5X           -36.5400960179      -29.4452036723        8.7926399059  MEMB      93              0.0000000000
     11564        93  PMPE      H5Y           -34.8693215034      -29.6509239765        8.3546661844  MEMB      93              0.0000000000
     11565        93  PMPE      C36           -35.4764732527      -27.6175116119        8.4458640301  MEMB      93              0.0000000000
     11566        93  PMPE      H6X           -34.6280428293      -26.9890091220        8.7915103230  MEMB      93              0.0000000000
     11567        93  PMPE      H6Y           -36.3521385185      -27.0587131960        8.8399133487  MEMB      93              0.0000000000
     11568        93  PMPE      C37           -35.5949663276      -27.6506272060        6.9199832408  MEMB      93              0.0000000000
     11569        93  PMPE      H7X           -36.4969837503      -28.1641425870        6.5237666428  MEMB      93              0.0000000000
     11570        93  PMPE      H7Y           -34.6721849627      -28.1473434420        6.5511077492  MEMB      93              0.0000000000
     11571        93  PMPE      C38           -35.6724379090      -26.2146140692        6.2224755993  MEMB      93              0.0000000000
     11572        93  PMPE      H8X           -34.8612663565      -25.5830851604        6.6437741505  MEMB      93              0.0000000000
     11573        93  PMPE      H8Y           -36.6565959638      -25.8260857793        6.5612972316  MEMB      93              0.0000000000
     11574        93  PMPE      C39           -35.8483222231      -26.4127046687        4.6676280485  MEMB      93              0.0000000000
     11575        93  PMPE      H9X           -35.9672719814      -25.4174176799        4.1884869160  MEMB      93              0.0000000000
     11576        93  PMPE      H9Y           -36.7287406522      -27.0711993553        4.5077253573  MEMB      93              0.0000000000
     11577        93  PMPE      C310          -34.6506883048      -27.2000827228        4.0761148574  MEMB      93              0.0000000000
     11578        93  PMPE      H10X          -34.8748147205      -28.2768337417        4.2332641611  MEMB      93              0.0000000000
     11579        93  PMPE      H10Y          -33.7233156718      -27.0291110896        4.6635412511  MEMB      93              0.0000000000
     11580        93  PMPE      C311          -34.5626406998      -27.0397344888        2.5614495730  MEMB      93              0.0000000000
     11581        93  PMPE      H11X          -35.3699639383      -26.3536096251        2.2271099197  MEMB      93              0.0000000000
     11582        93  PMPE      H11Y          -34.7187602184      -27.9247799085        1.9082704288  MEMB      93              0.0000000000
     11583        93  PMPE      C312          -33.2461925889      -26.3909989026        2.2549124990  MEMB      93              0.0000000000
     11584        93  PMPE      H12X          -32.3940442414      -27.1035124558        2.2328017645  MEMB      93              0.0000000000
     11585        93  PMPE      H12Y          -32.9127480241      -25.6344791223        2.9970799077  MEMB      93              0.0000000000
     11586        93  PMPE      C313          -33.2116103101      -25.5894029166        0.8666427254  MEMB      93              0.0000000000
     11587        93  PMPE      H13X          -32.3914976508      -24.8410983516        0.9087863447  MEMB      93              0.0000000000
     11588        93  PMPE      H13Y          -34.1513342571      -25.0086085345        0.7486691196  MEMB      93              0.0000000000
     11589        93  PMPE      C314          -32.9551982039      -26.4267654832       -0.3799049605  MEMB      93              0.0000000000
     11590        93  PMPE      H14X          -33.7652131745      -27.1593583119       -0.5836317876  MEMB      93              0.0000000000
     11591        93  PMPE      H14Y          -32.0555502761      -27.0525536721       -0.1973024685  MEMB      93              0.0000000000
     11592        93  PMPE      C315          -32.8406520712      -25.5408864826       -1.5548167698  MEMB      93              0.0000000000
     11593        93  PMPE      H15X          -32.4892050165      -26.1944830819       -2.3816282543  MEMB      93              0.0000000000
     11594        93  PMPE      H15Y          -32.1055959126      -24.7296831897       -1.3651793265  MEMB      93              0.0000000000
     11595        93  PMPE      C316          -34.2039252992      -25.0068307470       -2.1042586019  MEMB      93              0.0000000000
     11596        93  PMPE      H16X          -34.8002374088      -24.4328565742       -1.3631204038  MEMB      93              0.0000000000
     11597        93  PMPE      H16Y          -34.8245405593      -25.9064452948       -2.3038869262  MEMB      93              0.0000000000
     11598        93  PMPE      H16Z          -34.0035311322      -24.4673895529       -3.0546087826  MEMB      93              0.0000000000
     11599        94  POPE      N              25.0591403183      -35.9012266049       18.9905898780  MEMB      94              0.0000000000
     11600        94  POPE      HN1            25.8426321928      -36.4444430613       18.5750706565  MEMB      94              0.0000000000
     11601        94  POPE      HN2            24.5380236766      -35.3235280277       18.3004436995  MEMB      94              0.0000000000
     11602        94  POPE      HN3            25.4096750134      -35.2239904540       19.6977508482  MEMB      94              0.0000000000
     11603        94  POPE      C12            24.0565416535      -36.7321057573       19.6734896855  MEMB      94              0.0000000000
     11604        94  POPE      H12A           23.0957737636      -36.8613873719       19.1307812869  MEMB      94              0.0000000000
     11605        94  POPE      H12B           23.8687034293      -36.2808120449       20.6711730081  MEMB      94              0.0000000000
     11606        94  POPE      C11            24.6103080534      -38.1806178328       19.9104599635  MEMB      94              0.0000000000
     11607        94  POPE      H11A           23.8753261581      -38.6996438413       20.5621765787  MEMB      94              0.0000000000
     11608        94  POPE      H11B           25.5585636504      -38.1094098901       20.4849699461  MEMB      94              0.0000000000
     11609        94  POPE      P              25.5281366110      -40.2720368599       18.7425195238  MEMB      94              0.0000000000
     11610        94  POPE      O13            24.6342003511      -41.4204473847       18.2576451268  MEMB      94              0.0000000000
     11611        94  POPE      O14            26.1488669007      -40.4113461877       20.0839064717  MEMB      94              0.0000000000
     11612        94  POPE      O11            26.7511438053      -40.0808576859       17.6874605572  MEMB      94              0.0000000000
     11613        94  POPE      O12            24.7813046954      -38.8586208843       18.6539288073  MEMB      94              0.0000000000
     11614        94  POPE      C1             27.1222272115      -38.8055847680       17.1875397588  MEMB      94              0.0000000000
     11615        94  POPE      HA             28.2101029189      -38.7646672643       16.9657890378  MEMB      94              0.0000000000
     11616        94  POPE      HB             26.9769743997      -38.0447006594       17.9839554058  MEMB      94              0.0000000000
     11617        94  POPE      C2             26.1582832075      -38.3840459216       16.0312504538  MEMB      94              0.0000000000
     11618        94  POPE      HS             25.1469272964      -38.2651468883       16.4754837961  MEMB      94              0.0000000000
     11619        94  POPE      O21            26.1365000523      -39.4650199281       15.0629522233  MEMB      94              0.0000000000
     11620        94  POPE      C21            25.0096425755      -39.6360788269       14.3667634779  MEMB      94              0.0000000000
     11621        94  POPE      O22            23.9156621070      -39.2084221326       14.6605142260  MEMB      94              0.0000000000
     11622        94  POPE      C22            25.2955684668      -40.4897318360       13.0899834276  MEMB      94              0.0000000000
     11623        94  POPE      H2R            24.3568718823      -40.9020003726       12.6619592109  MEMB      94              0.0000000000
     11624        94  POPE      H2S            25.7277993584      -41.4383505590       13.4741971266  MEMB      94              0.0000000000
     11625        94  POPE      C3             26.5037515063      -37.0969689512       15.2668794747  MEMB      94              0.0000000000
     11626        94  POPE      HX             26.3757065435      -36.2509779247       15.9755574805  MEMB      94              0.0000000000
     11627        94  POPE      HY             25.7929518510      -36.9716989025       14.4222538166  MEMB      94              0.0000000000
     11628        94  POPE      O31            27.8845662374      -37.0980071823       14.7769446441  MEMB      94              0.0000000000
     11629        94  POPE      C31            28.3064267785      -35.9139334185       14.3828360897  MEMB      94              0.0000000000
     11630        94  POPE      O32            27.7442224384      -34.8223557474       14.4409801249  MEMB      94              0.0000000000
     11631        94  POPE      C32            29.6645369706      -36.1757778022       13.6054385042  MEMB      94              0.0000000000
     11632        94  POPE      H2X            30.3628528157      -36.9012612167       14.0748525333  MEMB      94              0.0000000000
     11633        94  POPE      H2Y            30.1391636780      -35.1763365415       13.5046022762  MEMB      94              0.0000000000
     11634        94  POPE      C23            26.1366134648      -39.7253342675       12.0448049244  MEMB      94              0.0000000000
     11635        94  POPE      H3R            27.1789724738      -39.7899342195       12.4237973995  MEMB      94              0.0000000000
     11636        94  POPE      H3S            25.7049481729      -38.7017509462       12.0285798091  MEMB      94              0.0000000000
     11637        94  POPE      C24            26.0169763525      -40.2397484457       10.6366760060  MEMB      94              0.0000000000
     11638        94  POPE      H4R            24.9414805425      -40.1953772050       10.3616110539  MEMB      94              0.0000000000
     11639        94  POPE      H4S            26.3053355232      -41.3117905729       10.6802168845  MEMB      94              0.0000000000
     11640        94  POPE      C25            26.8887950453      -39.5032047868        9.5732716893  MEMB      94              0.0000000000
     11641        94  POPE      H5R            26.7713770759      -38.4084416366        9.7216887783  MEMB      94              0.0000000000
     11642        94  POPE      H5S            26.4627066909      -39.7740500553        8.5836187968  MEMB      94              0.0000000000
     11643        94  POPE      C26            28.4318239434      -39.8098554951        9.6946266797  MEMB      94              0.0000000000
     11644        94  POPE      H6R            28.5020258858      -40.9130262065        9.8060130310  MEMB      94              0.0000000000
     11645        94  POPE      H6S            28.8346813881      -39.4910289262       10.6797035584  MEMB      94              0.0000000000
     11646        94  POPE      C27            29.2818594879      -39.2226831624        8.5976695340  MEMB      94              0.0000000000
     11647        94  POPE      H7R            30.2353608198      -39.0428028479        9.1387791838  MEMB      94              0.0000000000
     11648        94  POPE      H7S            29.1769255474      -38.1571512143        8.3011040113  MEMB      94              0.0000000000
     11649        94  POPE      C28            29.2290777666      -40.1594863397        7.3955338166  MEMB      94              0.0000000000
     11650        94  POPE      H8R            28.1693376681      -40.1891863373        7.0632846280  MEMB      94              0.0000000000
     11651        94  POPE      H8S            29.5043735225      -41.2119323553        7.6211243438  MEMB      94              0.0000000000
     11652        94  POPE      C29            30.0815350510      -39.6265020660        6.2835586617  MEMB      94              0.0000000000
     11653        94  POPE      H91            31.1702726376      -39.6884000223        6.4278477961  MEMB      94              0.0000000000
     11654        94  POPE      C210           29.5827291209      -38.9446100109        5.2471176145  MEMB      94              0.0000000000
     11655        94  POPE      H101           30.3733602030      -38.7674320497        4.5031347576  MEMB      94              0.0000000000
     11656        94  POPE      C211           28.1400519532      -38.5865283911        4.9102797436  MEMB      94              0.0000000000
     11657        94  POPE      H11R           28.1530649290      -37.6306535323        4.3441921544  MEMB      94              0.0000000000
     11658        94  POPE      H11S           27.4564995039      -38.3822015819        5.7619416826  MEMB      94              0.0000000000
     11659        94  POPE      C212           27.6411725074      -39.4957172504        3.8258460254  MEMB      94              0.0000000000
     11660        94  POPE      H12R           27.6850452726      -40.5504574272        4.1721390633  MEMB      94              0.0000000000
     11661        94  POPE      H12S           28.3616886414      -39.3490500174        2.9929794634  MEMB      94              0.0000000000
     11662        94  POPE      C213           26.2765372399      -39.1024427343        3.3024638964  MEMB      94              0.0000000000
     11663        94  POPE      H13R           26.2508839146      -38.0272264896        3.0239443689  MEMB      94              0.0000000000
     11664        94  POPE      H13S           25.5611624847      -39.1788266790        4.1490602480  MEMB      94              0.0000000000
     11665        94  POPE      C214           25.6882465956      -40.0576960960        2.2319114482  MEMB      94              0.0000000000
     11666        94  POPE      H14R           24.6368926740      -39.7002070057        2.1975951438  MEMB      94              0.0000000000
     11667        94  POPE      H14S           25.6741692866      -41.0792833299        2.6683560712  MEMB      94              0.0000000000
     11668        94  POPE      C215           26.4585795418      -40.0739419070        0.9119937460  MEMB      94              0.0000000000
     11669        94  POPE      H15R           27.3895898328      -40.6769362904        0.8492353431  MEMB      94              0.0000000000
     11670        94  POPE      H15S           26.7101413619      -39.0098933462        0.7149210400  MEMB      94              0.0000000000
     11671        94  POPE      C216           25.5313769641      -40.4418993951       -0.2371439697  MEMB      94              0.0000000000
     11672        94  POPE      H16R           25.9687492842      -40.1670679069       -1.2207572756  MEMB      94              0.0000000000
     11673        94  POPE      H16S           24.5275056271      -39.9661763063       -0.2529869743  MEMB      94              0.0000000000
     11674        94  POPE      C217           25.2396238467      -41.9654491037       -0.3637587341  MEMB      94              0.0000000000
     11675        94  POPE      H17R           24.4480066097      -42.0933110530       -1.1327284593  MEMB      94              0.0000000000
     11676        94  POPE      H17S           24.8989810784      -42.3066830876        0.6371616056  MEMB      94              0.0000000000
     11677        94  POPE      C218           26.3972877801      -42.9106955189       -0.8025396059  MEMB      94              0.0000000000
     11678        94  POPE      H18R           26.0089194377      -43.9452804058       -0.9171057041  MEMB      94              0.0000000000
     11679        94  POPE      H18S           27.2774139535      -42.7569339815       -0.1421952997  MEMB      94              0.0000000000
     11680        94  POPE      H18T           26.6469048169      -42.4719993756       -1.7922665080  MEMB      94              0.0000000000
     11681        94  POPE      C33            29.2847413142      -36.5309362819       12.1311532053  MEMB      94              0.0000000000
     11682        94  POPE      H3X            28.4416392137      -35.8481574448       11.8917520138  MEMB      94              0.0000000000
     11683        94  POPE      H3Y            28.8406686902      -37.5371260535       11.9739821448  MEMB      94              0.0000000000
     11684        94  POPE      C34            30.3183152387      -36.3897630397       11.0576614774  MEMB      94              0.0000000000
     11685        94  POPE      H4X            30.7336087399      -37.4041181051       10.8761792789  MEMB      94              0.0000000000
     11686        94  POPE      H4Y            30.9415781415      -35.5801461019       11.4939923549  MEMB      94              0.0000000000
     11687        94  POPE      C35            29.7888556091      -36.0109466880        9.7049272808  MEMB      94              0.0000000000
     11688        94  POPE      H5X            28.7807573596      -36.3936544985        9.4373578417  MEMB      94              0.0000000000
     11689        94  POPE      H5Y            30.4667454431      -36.2648134609        8.8621127098  MEMB      94              0.0000000000
     11690        94  POPE      C36            29.6371497531      -34.5015710870        9.4626353440  MEMB      94              0.0000000000
     11691        94  POPE      H6X            30.6681556573      -34.0876365040        9.4651028497  MEMB      94              0.0000000000
     11692        94  POPE      H6Y            29.0490522394      -34.0600734187       10.2954273528  MEMB      94              0.0000000000
     11693        94  POPE      C37            29.0996103895      -34.1120444686        8.0936835785  MEMB      94              0.0000000000
     11694        94  POPE      H7X            28.8713771494      -33.0248797300        8.0762754048  MEMB      94              0.0000000000
     11695        94  POPE      H7Y            28.0559000860      -34.4834988991        8.0099496274  MEMB      94              0.0000000000
     11696        94  POPE      C38            29.8883354989      -34.5245219357        6.8160658675  MEMB      94              0.0000000000
     11697        94  POPE      H8X            29.9228618626      -35.6006867869        6.5422087474  MEMB      94              0.0000000000
     11698        94  POPE      H8Y            30.9783329532      -34.3293175177        6.9061869745  MEMB      94              0.0000000000
     11699        94  POPE      C39            29.3971668533      -33.7500755013        5.5682794043  MEMB      94              0.0000000000
     11700        94  POPE      H9X            29.5514119468      -32.6898204794        5.8621996372  MEMB      94              0.0000000000
     11701        94  POPE      H9Y            28.3475095408      -34.0697929784        5.3941499598  MEMB      94              0.0000000000
     11702        94  POPE      C310           30.2048326288      -33.9892194154        4.3038720151  MEMB      94              0.0000000000
     11703        94  POPE      H10X           31.2096523400      -33.5264671363        4.4064346394  MEMB      94              0.0000000000
     11704        94  POPE      H10Y           29.7048618379      -33.6420938382        3.3744339066  MEMB      94              0.0000000000
     11705        94  POPE      C311           30.6174193261      -35.4274598580        3.9409783065  MEMB      94              0.0000000000
     11706        94  POPE      H11X           29.7443741732      -36.0912870237        4.1183097660  MEMB      94              0.0000000000
     11707        94  POPE      H11Y           31.4148918645      -35.7974429122        4.6202948759  MEMB      94              0.0000000000
     11708        94  POPE      C312           30.9465702069      -35.6651717955        2.4689756055  MEMB      94              0.0000000000
     11709        94  POPE      H12X           31.4775268908      -34.7937050196        2.0297113471  MEMB      94              0.0000000000
     11710        94  POPE      H12Y           29.9685643459      -35.8141322246        1.9633698190  MEMB      94              0.0000000000
     11711        94  POPE      C313           31.8435871688      -36.9232076583        2.3276227620  MEMB      94              0.0000000000
     11712        94  POPE      H13X           31.6620252440      -37.6667615683        3.1329077851  MEMB      94              0.0000000000
     11713        94  POPE      H13Y           32.8876287722      -36.5567773926        2.4277564261  MEMB      94              0.0000000000
     11714        94  POPE      C314           31.6517237496      -37.8237834033        1.0946908494  MEMB      94              0.0000000000
     11715        94  POPE      H14X           30.5954242057      -38.1680817248        1.0980190170  MEMB      94              0.0000000000
     11716        94  POPE      H14Y           32.2047371760      -38.7812947828        1.2027125060  MEMB      94              0.0000000000
     11717        94  POPE      C315           31.9180274824      -37.1195509281       -0.1723855163  MEMB      94              0.0000000000
     11718        94  POPE      H15X           32.8932201787      -36.5889074793       -0.2140697764  MEMB      94              0.0000000000
     11719        94  POPE      H15Y           31.1751808502      -36.2951330111       -0.2256274142  MEMB      94              0.0000000000
     11720        94  POPE      C316           31.8472545757      -38.1673021666       -1.4006406203  MEMB      94              0.0000000000
     11721        94  POPE      H16X           30.8662336361      -38.6877493126       -1.3681728721  MEMB      94              0.0000000000
     11722        94  POPE      H16Y           32.6374308457      -38.9420117282       -1.3018111012  MEMB      94              0.0000000000
     11723        94  POPE      H16Z           31.9969885046      -37.5522726655       -2.3136789556  MEMB      94              0.0000000000
     11724        95  PMPE      N             -28.8543951853       35.9092233071       20.0067183723  MEMB      95              0.0000000000
     11725        95  PMPE      HN1           -29.5006243223       35.8838258846       19.1922597034  MEMB      95              0.0000000000
     11726        95  PMPE      HN2           -29.0851274051       35.1417395293       20.6695389588  MEMB      95              0.0000000000
     11727        95  PMPE      HN3           -29.0637575256       36.7760441090       20.5418719234  MEMB      95              0.0000000000
     11728        95  PMPE      C12           -27.4611816246       35.8344636019       19.4479366416  MEMB      95              0.0000000000
     11729        95  PMPE      H12A          -27.4944614148       34.9582403801       18.7657002676  MEMB      95              0.0000000000
     11730        95  PMPE      H12B          -26.7468885171       35.6741167197       20.2836371004  MEMB      95              0.0000000000
     11731        95  PMPE      C11           -27.0983594948       37.0452040463       18.6074909418  MEMB      95              0.0000000000
     11732        95  PMPE      H11A          -27.8229496658       37.2975835600       17.8040018947  MEMB      95              0.0000000000
     11733        95  PMPE      H11B          -26.1221815292       36.8600355209       18.1103891114  MEMB      95              0.0000000000
     11734        95  PMPE      P             -26.8038849087       39.6261072312       18.7984361569  MEMB      95              0.0000000000
     11735        95  PMPE      O13           -25.9519730241       39.5607848790       17.5847991050  MEMB      95              0.0000000000
     11736        95  PMPE      O14           -26.4107656084       40.5757917275       19.8399015110  MEMB      95              0.0000000000
     11737        95  PMPE      O11           -28.3428447917       39.8769360371       18.2911527702  MEMB      95              0.0000000000
     11738        95  PMPE      O12           -26.8692892255       38.1744601961       19.4235645329  MEMB      95              0.0000000000
     11739        95  PMPE      C1            -29.4044432735       39.8793140429       19.2333280978  MEMB      95              0.0000000000
     11740        95  PMPE      HA            -29.2597080762       40.8047632050       19.8307529487  MEMB      95              0.0000000000
     11741        95  PMPE      HB            -29.2747581821       39.0118852829       19.9152885953  MEMB      95              0.0000000000
     11742        95  PMPE      C2            -30.7482596585       39.7914617336       18.3817672674  MEMB      95              0.0000000000
     11743        95  PMPE      HS            -31.6211639468       39.4164339490       18.9577123657  MEMB      95              0.0000000000
     11744        95  PMPE      O21           -30.4981768021       38.8851604863       17.2655178053  MEMB      95              0.0000000000
     11745        95  PMPE      C21           -31.6702165351       38.6513133267       16.4837158346  MEMB      95              0.0000000000
     11746        95  PMPE      O22           -32.7865603472       39.0100805760       16.8109094785  MEMB      95              0.0000000000
     11747        95  PMPE      C22           -31.3049531701       37.7809053703       15.2569899748  MEMB      95              0.0000000000
     11748        95  PMPE      H2R           -31.4280167730       36.6942968350       15.4530981163  MEMB      95              0.0000000000
     11749        95  PMPE      H2S           -30.2362102908       37.9505361732       15.0053258466  MEMB      95              0.0000000000
     11750        95  PMPE      C3            -31.0776225152       41.2668949295       17.8278164294  MEMB      95              0.0000000000
     11751        95  PMPE      HX            -31.2083999022       41.8374244353       18.7721226324  MEMB      95              0.0000000000
     11752        95  PMPE      HY            -32.0800324140       41.3274295992       17.3526002288  MEMB      95              0.0000000000
     11753        95  PMPE      O31           -29.9391155475       41.7197303367       17.0694638827  MEMB      95              0.0000000000
     11754        95  PMPE      C31           -30.2499341887       41.9346077448       15.7647306012  MEMB      95              0.0000000000
     11755        95  PMPE      O32           -31.3687440444       41.9577396846       15.3121653870  MEMB      95              0.0000000000
     11756        95  PMPE      C32           -29.0395912926       42.0066487251       14.9100095278  MEMB      95              0.0000000000
     11757        95  PMPE      H2X           -28.3588371086       41.1435691821       15.0712184627  MEMB      95              0.0000000000
     11758        95  PMPE      H2Y           -28.4407435023       42.9106533907       15.1518324917  MEMB      95              0.0000000000
     11759        95  PMPE      C23           -32.2000231675       38.2738095630       14.0990024016  MEMB      95              0.0000000000
     11760        95  PMPE      H3R           -32.2298526006       39.3838963981       14.0652627826  MEMB      95              0.0000000000
     11761        95  PMPE      H3S           -33.2439719833       37.8998302664       14.1670513505  MEMB      95              0.0000000000
     11762        95  PMPE      C24           -31.6117717037       37.8104898186       12.7201592073  MEMB      95              0.0000000000
     11763        95  PMPE      H4R           -30.5575655284       38.1073485504       12.5334904923  MEMB      95              0.0000000000
     11764        95  PMPE      H4S           -32.2251347153       38.2855518721       11.9249091342  MEMB      95              0.0000000000
     11765        95  PMPE      C25           -31.5341640035       36.2234151741       12.5404226450  MEMB      95              0.0000000000
     11766        95  PMPE      H5R           -32.3575664101       35.6926599275       13.0644724622  MEMB      95              0.0000000000
     11767        95  PMPE      H5S           -30.6668780324       35.7726827946       13.0686045522  MEMB      95              0.0000000000
     11768        95  PMPE      C26           -31.3593295680       35.7475917476       11.1146842676  MEMB      95              0.0000000000
     11769        95  PMPE      H6R           -32.3224365045       35.6597295207       10.5678507613  MEMB      95              0.0000000000
     11770        95  PMPE      H6S           -31.0853585459       34.6837552328       11.2805535664  MEMB      95              0.0000000000
     11771        95  PMPE      C27           -30.1539079180       36.3240619089       10.3243039178  MEMB      95              0.0000000000
     11772        95  PMPE      H7R           -29.1536190209       36.2454295003       10.8013373717  MEMB      95              0.0000000000
     11773        95  PMPE      H7S           -30.2896750634       37.4025510870       10.0946321556  MEMB      95              0.0000000000
     11774        95  PMPE      C28           -29.9256351379       35.7810725881        8.8990468315  MEMB      95              0.0000000000
     11775        95  PMPE      H8R           -30.9367327005       36.0289003136        8.5109940529  MEMB      95              0.0000000000
     11776        95  PMPE      H8S           -29.7637550933       34.6833077714        8.9540724105  MEMB      95              0.0000000000
     11777        95  PMPE      C29           -28.8282600995       36.5757815461        8.2186497185  MEMB      95              0.0000000000
     11778        95  PMPE      H9R           -27.8595012464       36.5352203586        8.7610352302  MEMB      95              0.0000000000
     11779        95  PMPE      C217          -29.2303309204       37.9158814963        7.5712198344  MEMB      95              0.0000000000
     11780        95  PMPE      H17R          -28.3266052193       38.5057947492        7.6616164832  MEMB      95              0.0000000000
     11781        95  PMPE      H17S          -30.2643510345       38.2377618925        7.5620327199  MEMB      95              0.0000000000
     11782        95  PMPE      C210          -28.8783861870       36.7079931509        6.7348500976  MEMB      95              0.0000000000
     11783        95  PMPE      H10R          -27.8327023711       36.6794729592        6.3606134417  MEMB      95              0.0000000000
     11784        95  PMPE      C211          -30.0795106690       36.2663893360        5.8590456126  MEMB      95              0.0000000000
     11785        95  PMPE      H11R          -30.0147971881       36.9142573406        4.9588228451  MEMB      95              0.0000000000
     11786        95  PMPE      H11S          -31.0399559136       36.5274671552        6.3527098224  MEMB      95              0.0000000000
     11787        95  PMPE      C212          -30.1597505285       34.8043164922        5.4872620822  MEMB      95              0.0000000000
     11788        95  PMPE      H12R          -29.8228274609       34.1884511747        6.3483738859  MEMB      95              0.0000000000
     11789        95  PMPE      H12S          -29.3558151420       34.4558779484        4.8041809470  MEMB      95              0.0000000000
     11790        95  PMPE      C213          -31.4722857805       34.4304932092        4.8704472536  MEMB      95              0.0000000000
     11791        95  PMPE      H13R          -31.6726296774       35.2415808831        4.1381082566  MEMB      95              0.0000000000
     11792        95  PMPE      H13S          -32.2851818878       34.5251108501        5.6218248949  MEMB      95              0.0000000000
     11793        95  PMPE      C214          -31.5296046284       33.0345135074        4.2282069435  MEMB      95              0.0000000000
     11794        95  PMPE      H14R          -32.5219998567       32.8129238466        3.7805801771  MEMB      95              0.0000000000
     11795        95  PMPE      H14S          -31.3211672597       32.3071470140        5.0417267107  MEMB      95              0.0000000000
     11796        95  PMPE      C215          -30.5271781302       32.8115903619        3.0003501094  MEMB      95              0.0000000000
     11797        95  PMPE      H15R          -30.8710056192       31.8182681500        2.6406066383  MEMB      95              0.0000000000
     11798        95  PMPE      H15S          -29.4701928721       32.8201645665        3.3424457224  MEMB      95              0.0000000000
     11799        95  PMPE      C216          -30.8070429047       33.8621082138        1.9135354072  MEMB      95              0.0000000000
     11800        95  PMPE      H16R          -31.7947133294       33.4681660526        1.5916087969  MEMB      95              0.0000000000
     11801        95  PMPE      H16S          -30.7561286273       34.8990522655        2.3091066953  MEMB      95              0.0000000000
     11802        95  PMPE      H16T          -30.1896041635       33.8727774389        0.9899689876  MEMB      95              0.0000000000
     11803        95  PMPE      C33           -29.4487182671       41.9248092840       13.4388302355  MEMB      95              0.0000000000
     11804        95  PMPE      H3X           -30.2744186384       42.6372519474       13.2267801098  MEMB      95              0.0000000000
     11805        95  PMPE      H3Y           -29.7686092310       40.8934010324       13.1777022721  MEMB      95              0.0000000000
     11806        95  PMPE      C34           -28.3220008601       42.3056685389       12.4253300784  MEMB      95              0.0000000000
     11807        95  PMPE      H4X           -28.0562351464       43.3074675104       12.8254404493  MEMB      95              0.0000000000
     11808        95  PMPE      H4Y           -28.7855219345       42.4611530771       11.4276863233  MEMB      95              0.0000000000
     11809        95  PMPE      C35           -27.1896035108       41.3006308992       12.3295404066  MEMB      95              0.0000000000
     11810        95  PMPE      H5X           -26.4878550610       41.2699757920       13.1903132932  MEMB      95              0.0000000000
     11811        95  PMPE      H5Y           -26.6238567591       41.5972500379       11.4205469709  MEMB      95              0.0000000000
     11812        95  PMPE      C36           -27.6350717970       39.8140034797       12.1698589379  MEMB      95              0.0000000000
     11813        95  PMPE      H6X           -28.3304517286       39.7463300141       11.3060370923  MEMB      95              0.0000000000
     11814        95  PMPE      H6Y           -28.1379515164       39.4376751698       13.0862704195  MEMB      95              0.0000000000
     11815        95  PMPE      C37           -26.5064336492       38.7738684296       11.9000648193  MEMB      95              0.0000000000
     11816        95  PMPE      H7X           -27.0288513302       37.8259131815       11.6495023611  MEMB      95              0.0000000000
     11817        95  PMPE      H7Y           -25.9159209638       38.5887438456       12.8227483601  MEMB      95              0.0000000000
     11818        95  PMPE      C38           -25.6068224408       39.1113653831       10.6721450180  MEMB      95              0.0000000000
     11819        95  PMPE      H8X           -24.6750404238       38.5099211180       10.7382352885  MEMB      95              0.0000000000
     11820        95  PMPE      H8Y           -25.2769715285       40.1721582957       10.6567200459  MEMB      95              0.0000000000
     11821        95  PMPE      C39           -26.2521274778       39.0200539572        9.2483778748  MEMB      95              0.0000000000
     11822        95  PMPE      H9X           -27.1032243169       39.7330806749        9.2090354157  MEMB      95              0.0000000000
     11823        95  PMPE      H9Y           -26.5686379036       38.0265583293        8.8648305699  MEMB      95              0.0000000000
     11824        95  PMPE      C310          -25.1992327395       39.4302043620        8.2513216889  MEMB      95              0.0000000000
     11825        95  PMPE      H10X          -24.3657499193       38.7067001032        8.3784763853  MEMB      95              0.0000000000
     11826        95  PMPE      H10Y          -24.7623367696       40.4357455898        8.4311252353  MEMB      95              0.0000000000
     11827        95  PMPE      C311          -25.7573865086       39.4450300482        6.7466903484  MEMB      95              0.0000000000
     11828        95  PMPE      H11X          -26.2744284292       40.4281542025        6.7253496030  MEMB      95              0.0000000000
     11829        95  PMPE      H11Y          -26.3416647922       38.5215625566        6.5463207643  MEMB      95              0.0000000000
     11830        95  PMPE      C312          -24.6275922445       39.6390423053        5.6841038736  MEMB      95              0.0000000000
     11831        95  PMPE      H12X          -24.0215859887       38.7145489716        5.5727960191  MEMB      95              0.0000000000
     11832        95  PMPE      H12Y          -23.9654646178       40.4877101848        5.9591859473  MEMB      95              0.0000000000
     11833        95  PMPE      C313          -25.1976692187       40.0230884862        4.3150235395  MEMB      95              0.0000000000
     11834        95  PMPE      H13X          -24.2991017487       40.5232980129        3.8946813927  MEMB      95              0.0000000000
     11835        95  PMPE      H13Y          -25.9782744369       40.7974953108        4.4739911563  MEMB      95              0.0000000000
     11836        95  PMPE      C314          -25.7311279993       38.8961236991        3.4042660890  MEMB      95              0.0000000000
     11837        95  PMPE      H14X          -26.5770914674       38.3897174067        3.9163397813  MEMB      95              0.0000000000
     11838        95  PMPE      H14Y          -24.9261279669       38.1376920086        3.2990165975  MEMB      95              0.0000000000
     11839        95  PMPE      C315          -26.2999755775       39.3187911983        2.0101925595  MEMB      95              0.0000000000
     11840        95  PMPE      H15X          -26.2194859302       38.4267638425        1.3528261531  MEMB      95              0.0000000000
     11841        95  PMPE      H15Y          -25.5983972898       40.0836569644        1.6138481533  MEMB      95              0.0000000000
     11842        95  PMPE      C316          -27.7485768841       39.8436939373        1.9741978159  MEMB      95              0.0000000000
     11843        95  PMPE      H16X          -28.4857873580       39.0560676048        2.2396908823  MEMB      95              0.0000000000
     11844        95  PMPE      H16Y          -27.9164735836       40.3390597825        0.9940235822  MEMB      95              0.0000000000
     11845        95  PMPE      H16Z          -27.6390602591       40.5565121036        2.8193128342  MEMB      95              0.0000000000
     11846        96  OYPE      N              35.3300161114       28.8017100640       17.7905640974  MEMB      96              0.0000000000
     11847        96  OYPE      HN1            36.3619986626       28.7486323273       17.6731132036  MEMB      96              0.0000000000
     11848        96  OYPE      HN2            34.8213475796       28.0317841289       17.3109074167  MEMB      96              0.0000000000
     11849        96  OYPE      HN3            35.0869281592       29.7021886871       17.3305133560  MEMB      96              0.0000000000
     11850        96  OYPE      C12            34.8755688509       28.9642749401       19.2537775607  MEMB      96              0.0000000000
     11851        96  OYPE      H12A           35.3060273969       28.0764861345       19.7645196931  MEMB      96              0.0000000000
     11852        96  OYPE      H12B           33.7687914525       28.9059312548       19.1765691602  MEMB      96              0.0000000000
     11853        96  OYPE      C11            35.4383097825       30.2220026917       19.9655216500  MEMB      96              0.0000000000
     11854        96  OYPE      H11A           35.3437772856       30.0337534724       21.0563684786  MEMB      96              0.0000000000
     11855        96  OYPE      H11B           34.7419669539       31.0355903550       19.6697130978  MEMB      96              0.0000000000
     11856        96  OYPE      P              37.3968884939       31.8586744852       19.0161244464  MEMB      96              0.0000000000
     11857        96  OYPE      O13            38.8393304056       31.9309018201       19.2781427266  MEMB      96              0.0000000000
     11858        96  OYPE      O14            36.6492997586       32.9929613577       19.5871979182  MEMB      96              0.0000000000
     11859        96  OYPE      O11            37.1000611031       31.6830419198       17.4886863072  MEMB      96              0.0000000000
     11860        96  OYPE      O12            36.8372302961       30.5397063256       19.6199852966  MEMB      96              0.0000000000
     11861        96  OYPE      C1             38.2463865182       31.7251520843       16.6100567279  MEMB      96              0.0000000000
     11862        96  OYPE      HA             39.0411150505       31.0358610133       16.9672755767  MEMB      96              0.0000000000
     11863        96  OYPE      HB             38.6162051523       32.7719856221       16.5688870141  MEMB      96              0.0000000000
     11864        96  OYPE      C2             37.8759125569       31.3264949103       15.1547761646  MEMB      96              0.0000000000
     11865        96  OYPE      HS             38.7356204597       31.3810609523       14.4531739177  MEMB      96              0.0000000000
     11866        96  OYPE      O21            36.8979223530       32.2956739736       14.8107048573  MEMB      96              0.0000000000
     11867        96  OYPE      C21            37.0439000358       32.9931476370       13.7641859500  MEMB      96              0.0000000000
     11868        96  OYPE      O22            38.0460989892       33.0230753600       13.0455953906  MEMB      96              0.0000000000
     11869        96  OYPE      C22            35.8377721254       33.9540920417       13.5210891935  MEMB      96              0.0000000000
     11870        96  OYPE      H2R            36.2580059061       34.9817959478       13.5604532908  MEMB      96              0.0000000000
     11871        96  OYPE      H2S            35.1747332988       33.6995956180       14.3754496715  MEMB      96              0.0000000000
     11872        96  OYPE      C3             37.2719791386       29.9993245595       14.9898607479  MEMB      96              0.0000000000
     11873        96  OYPE      HX             36.1773893331       30.1602401138       15.0913512893  MEMB      96              0.0000000000
     11874        96  OYPE      HY             37.6373868623       29.2997865417       15.7718101510  MEMB      96              0.0000000000
     11875        96  OYPE      O31            37.3688693186       29.4208938614       13.6468742101  MEMB      96              0.0000000000
     11876        96  OYPE      C31            38.4419428019       28.7736718714       13.4032079647  MEMB      96              0.0000000000
     11877        96  OYPE      O32            39.3005054136       28.5049454757       14.2136306707  MEMB      96              0.0000000000
     11878        96  OYPE      C32            38.4799698615       28.5847321423       11.9249039735  MEMB      96              0.0000000000
     11879        96  OYPE      H2X            38.3171810298       27.5131588936       11.6808722464  MEMB      96              0.0000000000
     11880        96  OYPE      H2Y            37.7048467778       29.2850401482       11.5466523998  MEMB      96              0.0000000000
     11881        96  OYPE      C23            35.0968459697       33.7934891790       12.2025428370  MEMB      96              0.0000000000
     11882        96  OYPE      H3R            35.6970829959       33.9235053903       11.2767281271  MEMB      96              0.0000000000
     11883        96  OYPE      H3S            34.4047007399       34.6589778782       12.1239004108  MEMB      96              0.0000000000
     11884        96  OYPE      C24            34.3526180274       32.4918683303       12.0235383481  MEMB      96              0.0000000000
     11885        96  OYPE      H4R            33.4848782598       32.4613086571       12.7166580551  MEMB      96              0.0000000000
     11886        96  OYPE      H4S            35.0219253675       31.6401595499       12.2704007970  MEMB      96              0.0000000000
     11887        96  OYPE      C25            33.7414243866       32.2309566240       10.5778041053  MEMB      96              0.0000000000
     11888        96  OYPE      H5R            33.8150532096       33.2487600296       10.1385137225  MEMB      96              0.0000000000
     11889        96  OYPE      H5S            32.7400378073       31.9376730229       10.9592889824  MEMB      96              0.0000000000
     11890        96  OYPE      C26            34.3468503991       31.1144245214        9.7923572784  MEMB      96              0.0000000000
     11891        96  OYPE      H6R            33.6403501235       30.7414640484        9.0202950119  MEMB      96              0.0000000000
     11892        96  OYPE      H6S            34.4407547037       30.2998986817       10.5420576319  MEMB      96              0.0000000000
     11893        96  OYPE      C27            35.6642890221       31.6066702809        9.1692414561  MEMB      96              0.0000000000
     11894        96  OYPE      H7R            36.1093470508       30.6974495731        8.7114618545  MEMB      96              0.0000000000
     11895        96  OYPE      H7S            36.3134798807       31.9401572376       10.0068927205  MEMB      96              0.0000000000
     11896        96  OYPE      C28            35.5522481910       32.6873599751        8.1090121353  MEMB      96              0.0000000000
     11897        96  OYPE      H8R            36.5942373502       33.0488953090        7.9753270070  MEMB      96              0.0000000000
     11898        96  OYPE      H8S            34.9354216867       33.5274967538        8.4937406031  MEMB      96              0.0000000000
     11899        96  OYPE      C29            35.0485319684       32.0948020010        6.8062097532  MEMB      96              0.0000000000
     11900        96  OYPE      H9R            34.4751189438       31.1626538927        6.9171042509  MEMB      96              0.0000000000
     11901        96  OYPE      C210           35.1964484238       32.6489841047        5.5758546289  MEMB      96              0.0000000000
     11902        96  OYPE      H10R           34.8241765288       32.0881696280        4.7058539034  MEMB      96              0.0000000000
     11903        96  OYPE      C211           35.9155132479       33.9851614599        5.3600884520  MEMB      96              0.0000000000
     11904        96  OYPE      H11R           36.9561864208       33.9192159763        5.7434570506  MEMB      96              0.0000000000
     11905        96  OYPE      H11S           35.2404555640       34.7146288362        5.8565711420  MEMB      96              0.0000000000
     11906        96  OYPE      C212           35.9360421615       34.4669983770        3.9466936308  MEMB      96              0.0000000000
     11907        96  OYPE      H12R           35.9391068839       35.5732987385        3.8446596494  MEMB      96              0.0000000000
     11908        96  OYPE      H12S           34.9227880108       34.2622999592        3.5395872540  MEMB      96              0.0000000000
     11909        96  OYPE      C213           37.0321855662       33.7741113116        3.0882862465  MEMB      96              0.0000000000
     11910        96  OYPE      H13R           36.9165599859       32.6794956393        3.2391790482  MEMB      96              0.0000000000
     11911        96  OYPE      H13S           37.9505608045       34.1057485941        3.6183098700  MEMB      96              0.0000000000
     11912        96  OYPE      C214           36.7915275289       34.1459499034        1.6173349367  MEMB      96              0.0000000000
     11913        96  OYPE      H14R           36.8543604665       35.2083650285        1.2985134157  MEMB      96              0.0000000000
     11914        96  OYPE      H14S           35.7208732614       33.8588863799        1.5424015176  MEMB      96              0.0000000000
     11915        96  OYPE      C215           37.5463265373       33.2462758471        0.6152835018  MEMB      96              0.0000000000
     11916        96  OYPE      H15R           37.1899231493       33.3137700700       -0.4348312330  MEMB      96              0.0000000000
     11917        96  OYPE      H15S           37.0520619857       32.2985541265        0.9183462122  MEMB      96              0.0000000000
     11918        96  OYPE      C216           39.0457428179       33.1955768324        0.7978803944  MEMB      96              0.0000000000
     11919        96  OYPE      H16R           39.5164926391       34.1943714474        0.9208667008  MEMB      96              0.0000000000
     11920        96  OYPE      H16S           39.6282095881       32.7769899442       -0.0505516532  MEMB      96              0.0000000000
     11921        96  OYPE      H16T           39.2482366980       32.7020731082        1.7724439375  MEMB      96              0.0000000000
     11922        96  OYPE      C33            39.9746012806       29.0684758262       11.4876120135  MEMB      96              0.0000000000
     11923        96  OYPE      H3X            40.8322011974       28.4146365838       11.7547031911  MEMB      96              0.0000000000
     11924        96  OYPE      H3Y            40.2184177787       30.0429813986       11.9621785984  MEMB      96              0.0000000000
     11925        96  OYPE      C34            40.1148958510       29.1156051426        9.9386549061  MEMB      96              0.0000000000
     11926        96  OYPE      H4X            41.1814205575       29.3377098554        9.7206737423  MEMB      96              0.0000000000
     11927        96  OYPE      H4Y            39.8548159153       28.1021616751        9.5650086017  MEMB      96              0.0000000000
     11928        96  OYPE      C35            39.1358689983       29.9171579590        9.0877660035  MEMB      96              0.0000000000
     11929        96  OYPE      H5X            39.0531916497       31.0039833476        9.3029308803  MEMB      96              0.0000000000
     11930        96  OYPE      H5Y            38.1258175590       29.4748001039        9.2235481551  MEMB      96              0.0000000000
     11931        96  OYPE      C36            39.4693290622       29.9096825939        7.6089616005  MEMB      96              0.0000000000
     11932        96  OYPE      H6X            39.1325040436       30.8749977574        7.1741782284  MEMB      96              0.0000000000
     11933        96  OYPE      H6Y            40.5766041639       29.9238304972        7.5191701732  MEMB      96              0.0000000000
     11934        96  OYPE      C37            38.9255454909       28.7306117159        6.7208342626  MEMB      96              0.0000000000
     11935        96  OYPE      H7X            39.0823586635       27.8431347185        7.3705384440  MEMB      96              0.0000000000
     11936        96  OYPE      H7Y            37.8316660943       28.8171617394        6.5468860514  MEMB      96              0.0000000000
     11937        96  OYPE      C38            39.8208901604       28.5925737524        5.4587113515  MEMB      96              0.0000000000
     11938        96  OYPE      H8X            40.9026899314       28.6332237177        5.7084677055  MEMB      96              0.0000000000
     11939        96  OYPE      H8Y            39.6847491884       27.5936342251        4.9919068671  MEMB      96              0.0000000000
     11940        96  OYPE      C39            39.6882871703       29.6249472909        4.4036846138  MEMB      96              0.0000000000
     11941        96  OYPE      H9X            40.5038328212       30.3476801063        4.2535436059  MEMB      96              0.0000000000
     11942        96  OYPE      C310           38.7810758035       29.7357651160        3.3974257285  MEMB      96              0.0000000000
     11943        96  OYPE      H10X           38.7314025169       30.5842240479        2.6991062221  MEMB      96              0.0000000000
     11944        96  OYPE      C311           37.6977064658       28.7159207110        3.1233410647  MEMB      96              0.0000000000
     11945        96  OYPE      H11X           38.0177260548       28.1462867134        2.2247716159  MEMB      96              0.0000000000
     11946        96  OYPE      H11Y           37.5567178887       28.0145200534        3.9733292916  MEMB      96              0.0000000000
     11947        96  OYPE      C312           36.3936818042       29.4873145019        2.7826222208  MEMB      96              0.0000000000
     11948        96  OYPE      H12X           36.5292828785       30.0488875839        1.8336399249  MEMB      96              0.0000000000
     11949        96  OYPE      H12Y           36.1972801610       30.1530774507        3.6500941225  MEMB      96              0.0000000000
     11950        96  OYPE      C313           35.2378677599       28.5351079028        2.5939266008  MEMB      96              0.0000000000
     11951        96  OYPE      H13X           35.3403930250       27.8198502755        1.7499987018  MEMB      96              0.0000000000
     11952        96  OYPE      H13Y           35.2621348678       27.8403814357        3.4605804727  MEMB      96              0.0000000000
     11953        96  OYPE      C314           33.7914026352       29.0224372052        2.5949273784  MEMB      96              0.0000000000
     11954        96  OYPE      H14X           33.6322944062       29.7216035790        3.4435570768  MEMB      96              0.0000000000
     11955        96  OYPE      H14Y           33.1078452277       28.1833081996        2.8457920512  MEMB      96              0.0000000000
     11956        96  OYPE      C315           33.5022150645       29.5990422399        1.2384904520  MEMB      96              0.0000000000
     11957        96  OYPE      H15X           32.4731517569       29.2823440295        0.9645349257  MEMB      96              0.0000000000
     11958        96  OYPE      H15Y           34.0887486259       29.1962165745        0.3852427521  MEMB      96              0.0000000000
     11959        96  OYPE      C316           33.3793865556       31.1003371351        1.1696796855  MEMB      96              0.0000000000
     11960        96  OYPE      H16X           34.4232216726       31.4743479706        1.2392872211  MEMB      96              0.0000000000
     11961        96  OYPE      H16Y           32.7743486850       31.3580957213        2.0651186629  MEMB      96              0.0000000000
     11962        96  OYPE      C317           32.7351746324       31.6754522915       -0.1187198338  MEMB      96              0.0000000000
     11963        96  OYPE      H17X           33.3980077496       31.5597854401       -1.0027976345  MEMB      96              0.0000000000
     11964        96  OYPE      H17Y           32.5579424500       32.7663144725       -0.0050124247  MEMB      96              0.0000000000
     11965        96  OYPE      C318           31.4077782380       30.9881239706       -0.4366078705  MEMB      96              0.0000000000
     11966        96  OYPE      H18X           31.2209683482       29.8940251565       -0.3879203513  MEMB      96              0.0000000000
     11967        96  OYPE      H18Y           30.6357178521       31.5892310690        0.0896174866  MEMB      96              0.0000000000
     11968        96  OYPE      H18Z           31.1470961552       31.2659361694       -1.4802502873  MEMB      96              0.0000000000
     11969        97  QMPE      N             -31.6949526007      -37.9053461352       21.2352101619  MEMB      97              0.0000000000
     11970        97  QMPE      HN1           -31.8995318068      -36.9059100237       21.4373853425  MEMB      97              0.0000000000
     11971        97  QMPE      HN2           -31.4485016455      -38.3600508016       22.1374881473  MEMB      97              0.0000000000
     11972        97  QMPE      HN3           -30.9185478954      -37.9535765486       20.5449423845  MEMB      97              0.0000000000
     11973        97  QMPE      C12           -32.8268703760      -38.6766251855       20.6086206777  MEMB      97              0.0000000000
     11974        97  QMPE      H12A          -33.7101306432      -38.4970770242       21.2581856753  MEMB      97              0.0000000000
     11975        97  QMPE      H12B          -32.5780185651      -39.7570996154       20.5381296000  MEMB      97              0.0000000000
     11976        97  QMPE      C11           -33.1399714611      -38.2449784930       19.1383606424  MEMB      97              0.0000000000
     11977        97  QMPE      H11A          -34.0000363308      -38.8420206451       18.7666753981  MEMB      97              0.0000000000
     11978        97  QMPE      H11B          -32.1960857739      -38.5780835507       18.6562385083  MEMB      97              0.0000000000
     11979        97  QMPE      P             -32.5876617604      -35.8340443395       18.2465051993  MEMB      97              0.0000000000
     11980        97  QMPE      O13           -31.2012932633      -36.1562252757       18.5430026958  MEMB      97              0.0000000000
     11981        97  QMPE      O14           -33.1270448168      -34.4797483238       18.5408036837  MEMB      97              0.0000000000
     11982        97  QMPE      O11           -32.8411071525      -36.1257706474       16.6841686054  MEMB      97              0.0000000000
     11983        97  QMPE      O12           -33.4670713374      -36.9282759517       19.0033283367  MEMB      97              0.0000000000
     11984        97  QMPE      C1            -34.1186002270      -35.9221164844       16.0720498754  MEMB      97              0.0000000000
     11985        97  QMPE      HA            -34.5079227669      -34.8818820427       16.0977620041  MEMB      97              0.0000000000
     11986        97  QMPE      HB            -34.8591275516      -36.5592021395       16.6012588625  MEMB      97              0.0000000000
     11987        97  QMPE      C2            -34.0280515749      -36.3507947496       14.5959756564  MEMB      97              0.0000000000
     11988        97  QMPE      HS            -35.0076773205      -36.7369419573       14.2416527968  MEMB      97              0.0000000000
     11989        97  QMPE      O21           -32.9526675986      -37.2419329227       14.3345671756  MEMB      97              0.0000000000
     11990        97  QMPE      C21           -33.0854639786      -38.3911221499       14.9092106061  MEMB      97              0.0000000000
     11991        97  QMPE      O22           -34.1125434975      -38.9552275158       15.2729152771  MEMB      97              0.0000000000
     11992        97  QMPE      C22           -31.6521602749      -39.0871736880       15.1938148012  MEMB      97              0.0000000000
     11993        97  QMPE      H2R           -31.6898377092      -39.8686148177       15.9826434754  MEMB      97              0.0000000000
     11994        97  QMPE      H2S           -30.7971530242      -38.4025630212       15.3798036386  MEMB      97              0.0000000000
     11995        97  QMPE      C3            -33.8380292145      -35.1066890807       13.6550901732  MEMB      97              0.0000000000
     11996        97  QMPE      HX            -33.3024091865      -34.3372929352       14.2512964814  MEMB      97              0.0000000000
     11997        97  QMPE      HY            -34.8130484088      -34.5740931729       13.6546902065  MEMB      97              0.0000000000
     11998        97  QMPE      O31           -33.2518524840      -35.5528532086       12.4387439307  MEMB      97              0.0000000000
     11999        97  QMPE      C31           -32.4846399037      -34.6486665914       11.8442082318  MEMB      97              0.0000000000
     12000        97  QMPE      O32           -32.0049756855      -33.6605490497       12.3819841107  MEMB      97              0.0000000000
     12001        97  QMPE      C32           -32.3937119800      -34.9994479458       10.3562131786  MEMB      97              0.0000000000
     12002        97  QMPE      H2X           -31.4677307333      -35.5988336525       10.2234864342  MEMB      97              0.0000000000
     12003        97  QMPE      H2Y           -33.2205408275      -35.6273851801        9.9607764628  MEMB      97              0.0000000000
     12004        97  QMPE      C23           -31.2541539269      -39.8055653752       13.8738594574  MEMB      97              0.0000000000
     12005        97  QMPE      H3R           -31.9754369219      -40.5331933762       13.4441737715  MEMB      97              0.0000000000
     12006        97  QMPE      H3S           -30.3280554819      -40.3658939662       14.1242474670  MEMB      97              0.0000000000
     12007        97  QMPE      C24           -30.9490773648      -38.9021252756       12.6648164534  MEMB      97              0.0000000000
     12008        97  QMPE      H4R           -30.1503259710      -38.1781971821       12.9336021773  MEMB      97              0.0000000000
     12009        97  QMPE      H4S           -31.8758419304      -38.3524931051       12.3940161134  MEMB      97              0.0000000000
     12010        97  QMPE      C25           -30.5110919832      -39.7453404436       11.4012597177  MEMB      97              0.0000000000
     12011        97  QMPE      H5R           -31.4058849672      -40.1186316130       10.8587463363  MEMB      97              0.0000000000
     12012        97  QMPE      H5S           -29.9280595067      -40.5964359872       11.8136065435  MEMB      97              0.0000000000
     12013        97  QMPE      C26           -29.9275831856      -38.9080760169       10.2452991224  MEMB      97              0.0000000000
     12014        97  QMPE      H6R           -29.1878694060      -38.2662603604       10.7699108239  MEMB      97              0.0000000000
     12015        97  QMPE      H6S           -30.7598410922      -38.2628178677        9.8913078334  MEMB      97              0.0000000000
     12016        97  QMPE      C27           -29.3422549869      -39.8242053558        9.1040330534  MEMB      97              0.0000000000
     12017        97  QMPE      H7R           -28.6770331446      -40.5168314601        9.6626644142  MEMB      97              0.0000000000
     12018        97  QMPE      H7S           -28.7706263942      -39.2524574670        8.3420180334  MEMB      97              0.0000000000
     12019        97  QMPE      C28           -30.3664551366      -40.6140463207        8.2831038959  MEMB      97              0.0000000000
     12020        97  QMPE      H8R           -31.1296213617      -41.0037388299        8.9902372099  MEMB      97              0.0000000000
     12021        97  QMPE      H8S           -29.9985136546      -41.4309310555        7.6261104445  MEMB      97              0.0000000000
     12022        97  QMPE      C29           -31.0934892843      -39.7345823261        7.3483284205  MEMB      97              0.0000000000
     12023        97  QMPE      H9R           -30.4879895958      -38.9767118022        6.8067348686  MEMB      97              0.0000000000
     12024        97  QMPE      C217          -32.4808901132      -39.1917989826        7.7868525700  MEMB      97              0.0000000000
     12025        97  QMPE      H17R          -32.9800857025      -39.7792262696        8.5475244209  MEMB      97              0.0000000000
     12026        97  QMPE      H17S          -32.7874098195      -38.1631413764        7.6426368727  MEMB      97              0.0000000000
     12027        97  QMPE      C210          -32.3862913599      -40.0432333600        6.5800714974  MEMB      97              0.0000000000
     12028        97  QMPE      H10R          -32.5045744842      -39.4332820035        5.6590448593  MEMB      97              0.0000000000
     12029        97  QMPE      C211          -32.8659412524      -41.4936309191        6.5740949465  MEMB      97              0.0000000000
     12030        97  QMPE      H11R          -33.0197065874      -41.8760185722        7.6058197716  MEMB      97              0.0000000000
     12031        97  QMPE      H11S          -33.8342181493      -41.5107656555        6.0296065073  MEMB      97              0.0000000000
     12032        97  QMPE      C212          -31.9504333182      -42.4590886287        5.7066015457  MEMB      97              0.0000000000
     12033        97  QMPE      H12R          -32.3562652015      -43.4917199278        5.7640002174  MEMB      97              0.0000000000
     12034        97  QMPE      H12S          -30.9697760529      -42.5700338395        6.2168210217  MEMB      97              0.0000000000
     12035        97  QMPE      C213          -31.7779407101      -42.1172853581        4.2241188266  MEMB      97              0.0000000000
     12036        97  QMPE      H13R          -32.7532150636      -41.9000077521        3.7383707737  MEMB      97              0.0000000000
     12037        97  QMPE      H13S          -31.3211534284      -43.0474884835        3.8236322153  MEMB      97              0.0000000000
     12038        97  QMPE      C214          -30.8024076978      -40.9977035765        3.8469733436  MEMB      97              0.0000000000
     12039        97  QMPE      H14R          -29.7514969896      -41.1154376814        4.1876277612  MEMB      97              0.0000000000
     12040        97  QMPE      H14S          -31.1666567805      -40.0577045822        4.3139262057  MEMB      97              0.0000000000
     12041        97  QMPE      C215          -30.6376838498      -40.7654084181        2.3847877130  MEMB      97              0.0000000000
     12042        97  QMPE      H15R          -29.9345818860      -39.9137744825        2.2635925396  MEMB      97              0.0000000000
     12043        97  QMPE      H15S          -31.6559518134      -40.4422840498        2.0797597239  MEMB      97              0.0000000000
     12044        97  QMPE      C216          -30.2135938933      -41.9649025512        1.5578657722  MEMB      97              0.0000000000
     12045        97  QMPE      H16R          -29.2065131793      -42.3089673298        1.8768162688  MEMB      97              0.0000000000
     12046        97  QMPE      H16S          -30.2380408734      -41.7433371990        0.4694594913  MEMB      97              0.0000000000
     12047        97  QMPE      H16T          -30.7960602513      -42.8959489838        1.7258130911  MEMB      97              0.0000000000
     12048        97  QMPE      C33           -32.3952276136      -33.7507999523        9.4297878499  MEMB      97              0.0000000000
     12049        97  QMPE      H3X           -31.6450369849      -32.9992678375        9.7564908800  MEMB      97              0.0000000000
     12050        97  QMPE      H3Y           -33.3684202966      -33.2152294274        9.4493116418  MEMB      97              0.0000000000
     12051        97  QMPE      C34           -31.9720820952      -33.9864042748        7.9194286848  MEMB      97              0.0000000000
     12052        97  QMPE      H4X           -32.4111482065      -33.1472885557        7.3385445333  MEMB      97              0.0000000000
     12053        97  QMPE      H4Y           -32.3951391185      -34.9749416468        7.6398975810  MEMB      97              0.0000000000
     12054        97  QMPE      C35           -30.3905355102      -34.2023816286        7.8014410417  MEMB      97              0.0000000000
     12055        97  QMPE      H5X           -30.2144718606      -34.9071228911        8.6420734147  MEMB      97              0.0000000000
     12056        97  QMPE      H5Y           -29.8839076657      -33.2441597683        8.0452863792  MEMB      97              0.0000000000
     12057        97  QMPE      C36           -29.8312736413      -34.6342820492        6.3965505129  MEMB      97              0.0000000000
     12058        97  QMPE      H6X           -28.7595335706      -34.3415698624        6.3928480219  MEMB      97              0.0000000000
     12059        97  QMPE      H6Y           -30.4836738956      -33.9892010549        5.7700003394  MEMB      97              0.0000000000
     12060        97  QMPE      C37           -30.0225011985      -36.1036314754        6.0670400592  MEMB      97              0.0000000000
     12061        97  QMPE      H7X           -29.5028039786      -36.6630774933        6.8740443589  MEMB      97              0.0000000000
     12062        97  QMPE      H7Y           -31.0750399352      -36.4479243581        6.1561799132  MEMB      97              0.0000000000
     12063        97  QMPE      C38           -29.4397593649      -36.3604105513        4.6902958960  MEMB      97              0.0000000000
     12064        97  QMPE      H8X           -28.3309679596      -36.2912066805        4.6796372585  MEMB      97              0.0000000000
     12065        97  QMPE      H8Y           -29.7943902183      -37.3877999444        4.4600154227  MEMB      97              0.0000000000
     12066        97  QMPE      C39           -29.8741943912      -35.5935208707        3.4311352799  MEMB      97              0.0000000000
     12067        97  QMPE      H9X           -28.9869728584      -35.0302674404        3.0707113136  MEMB      97              0.0000000000
     12068        97  QMPE      H9Y           -30.6395166112      -34.8463142738        3.7316100495  MEMB      97              0.0000000000
     12069        97  QMPE      C310          -30.3609037320      -36.4443679787        2.1997876849  MEMB      97              0.0000000000
     12070        97  QMPE      H10X          -31.0797508385      -37.2306126683        2.5150628265  MEMB      97              0.0000000000
     12071        97  QMPE      H10Y          -29.5035148810      -36.9736498452        1.7317412517  MEMB      97              0.0000000000
     12072        97  QMPE      C311          -30.9846020705      -35.5830045939        1.1037921409  MEMB      97              0.0000000000
     12073        97  QMPE      H11X          -30.1262468094      -35.0623314161        0.6279275130  MEMB      97              0.0000000000
     12074        97  QMPE      H11Y          -31.6079681123      -34.7647000415        1.5234509353  MEMB      97              0.0000000000
     12075        97  QMPE      C312          -31.7249488145      -36.3979046440        0.0542783847  MEMB      97              0.0000000000
     12076        97  QMPE      H12X          -32.3226022232      -37.1300233919        0.6383436963  MEMB      97              0.0000000000
     12077        97  QMPE      H12Y          -31.0301250842      -36.8477797691       -0.6867711729  MEMB      97              0.0000000000
     12078        97  QMPE      C313          -32.8268748752      -35.4864883310       -0.6221960605  MEMB      97              0.0000000000
     12079        97  QMPE      H13X          -33.6740683061      -35.4332219152        0.0945658457  MEMB      97              0.0000000000
     12080        97  QMPE      H13Y          -32.4718900407      -34.4476594827       -0.7929040941  MEMB      97              0.0000000000
     12081        97  QMPE      C314          -33.4220380130      -36.0775882667       -1.9692721541  MEMB      97              0.0000000000
     12082        97  QMPE      H14X          -33.9499037764      -37.0236420865       -1.7229783997  MEMB      97              0.0000000000
     12083        97  QMPE      H14Y          -32.6492085792      -36.2471774291       -2.7492062874  MEMB      97              0.0000000000
     12084        97  QMPE      C315          -34.4847438447      -35.2816135951       -2.7641301353  MEMB      97              0.0000000000
     12085        97  QMPE      H15X          -34.0081990253      -34.3331687228       -3.0922742072  MEMB      97              0.0000000000
     12086        97  QMPE      H15Y          -34.7222411454      -35.8451827227       -3.6916567706  MEMB      97              0.0000000000
     12087        97  QMPE      H15Z          -35.4423323833      -35.1029580612       -2.2298772673  MEMB      97              0.0000000000
     12088        98  PYPG      C13            30.8227345497       38.1103659590       20.2839444807  MEMB      98              0.0000000000
     12089        98  PYPG      H13A           29.7922494035       38.3186609973       20.6431582790  MEMB      98              0.0000000000
     12090        98  PYPG      H13B           30.8320345328       37.0260950515       20.0418884243  MEMB      98              0.0000000000
     12091        98  PYPG      OC3            31.7945258354       38.3821109773       21.3209749179  MEMB      98              0.0000000000
     12092        98  PYPG      HO3            31.3314386511       38.2452614525       22.1506869857  MEMB      98              0.0000000000
     12093        98  PYPG      C12            31.2168741435       39.0540585097       19.0916517752  MEMB      98              0.0000000000
     12094        98  PYPG      H12A           31.4951215734       40.0411689099       19.5286534520  MEMB      98              0.0000000000
     12095        98  PYPG      OC2            30.0949146662       39.2538020191       18.2306347302  MEMB      98              0.0000000000
     12096        98  PYPG      HO2            30.4848457163       39.7332892068       17.4672458039  MEMB      98              0.0000000000
     12097        98  PYPG      C11            32.4333135699       38.5928067652       18.2284005613  MEMB      98              0.0000000000
     12098        98  PYPG      H11A           32.5579013547       39.3231270609       17.4004928344  MEMB      98              0.0000000000
     12099        98  PYPG      H11B           32.4050519294       37.5173101296       17.9512195159  MEMB      98              0.0000000000
     12100        98  PYPG      P              34.9890331680       38.4449716293       18.5843473064  MEMB      98              0.0000000000
     12101        98  PYPG      O13            35.0320253395       37.2825828787       17.6661657513  MEMB      98              0.0000000000
     12102        98  PYPG      O14            35.8512958561       38.3466911431       19.7902135571  MEMB      98              0.0000000000
     12103        98  PYPG      O11            35.3279693536       39.7446477026       17.6937735633  MEMB      98              0.0000000000
     12104        98  PYPG      O12            33.5026495266       38.6314474544       19.1098933453  MEMB      98              0.0000000000
     12105        98  PYPG      C1             35.3967908357       41.0410757372       18.2739376379  MEMB      98              0.0000000000
     12106        98  PYPG      HA             36.3850385713       41.2462140595       18.7382711063  MEMB      98              0.0000000000
     12107        98  PYPG      HB             34.6814719897       41.1007261967       19.1219245994  MEMB      98              0.0000000000
     12108        98  PYPG      C2             35.1760638767       42.1327310086       17.1184105895  MEMB      98              0.0000000000
     12109        98  PYPG      HS             34.7504516819       43.0034860608       17.6615131905  MEMB      98              0.0000000000
     12110        98  PYPG      O21            34.2674784369       41.7264167215       16.1386428468  MEMB      98              0.0000000000
     12111        98  PYPG      C21            33.0256115719       42.0252508220       16.2877613364  MEMB      98              0.0000000000
     12112        98  PYPG      O22            32.5860324632       42.8431143205       17.0835783408  MEMB      98              0.0000000000
     12113        98  PYPG      C22            32.1471587553       41.2298412695       15.3454327838  MEMB      98              0.0000000000
     12114        98  PYPG      H2R            31.2830147997       40.7908870290       15.8884756195  MEMB      98              0.0000000000
     12115        98  PYPG      H2S            32.6335375607       40.3273792284       14.9172752197  MEMB      98              0.0000000000
     12116        98  PYPG      C3             36.5271770230       42.5123426955       16.3774346336  MEMB      98              0.0000000000
     12117        98  PYPG      HX             37.1980727168       43.0964875849       17.0430131941  MEMB      98              0.0000000000
     12118        98  PYPG      HY             36.2729692145       43.1009386834       15.4701010041  MEMB      98              0.0000000000
     12119        98  PYPG      O31            37.2150115010       41.3131364798       15.9686705444  MEMB      98              0.0000000000
     12120        98  PYPG      C31            36.9071807503       40.9229889555       14.6839989697  MEMB      98              0.0000000000
     12121        98  PYPG      O32            36.2439239065       41.5475197447       13.8346193995  MEMB      98              0.0000000000
     12122        98  PYPG      C32            37.6405147029       39.5845386503       14.4658399358  MEMB      98              0.0000000000
     12123        98  PYPG      H2X            38.3806030923       39.9001559113       13.6996968920  MEMB      98              0.0000000000
     12124        98  PYPG      H2Y            38.2543584863       39.3084988569       15.3497623241  MEMB      98              0.0000000000
     12125        98  PYPG      C23            31.5079545290       41.8657618490       14.0993165025  MEMB      98              0.0000000000
     12126        98  PYPG      H3R            30.9215244403       42.6963464930       14.5471451242  MEMB      98              0.0000000000
     12127        98  PYPG      H3S            30.6968356181       41.2107657865       13.7154058650  MEMB      98              0.0000000000
     12128        98  PYPG      C24            32.4598133958       42.3019550558       12.9232939533  MEMB      98              0.0000000000
     12129        98  PYPG      H4R            33.1913996850       42.9677990120       13.4290157279  MEMB      98              0.0000000000
     12130        98  PYPG      H4S            31.8369080963       42.7516763164       12.1207599816  MEMB      98              0.0000000000
     12131        98  PYPG      C25            33.2538052953       41.1550093311       12.2861547666  MEMB      98              0.0000000000
     12132        98  PYPG      H5R            33.9488406549       40.5748476260       12.9300953428  MEMB      98              0.0000000000
     12133        98  PYPG      H5S            33.9177915833       41.7084090954       11.5881632945  MEMB      98              0.0000000000
     12134        98  PYPG      C26            32.3989658546       40.1690075352       11.5359911868  MEMB      98              0.0000000000
     12135        98  PYPG      H6R            33.0502447472       39.8238402822       10.7047178918  MEMB      98              0.0000000000
     12136        98  PYPG      H6S            31.5165315385       40.5595638097       10.9854491942  MEMB      98              0.0000000000
     12137        98  PYPG      C27            32.1355265817       38.9157272102       12.4520477749  MEMB      98              0.0000000000
     12138        98  PYPG      H7R            31.3791159775       39.1913357694       13.2176870544  MEMB      98              0.0000000000
     12139        98  PYPG      H7S            33.0232411817       38.6060498959       13.0439796841  MEMB      98              0.0000000000
     12140        98  PYPG      C28            31.5608339720       37.6540898431       11.7080612933  MEMB      98              0.0000000000
     12141        98  PYPG      H8R            30.6385295366       38.0323056841       11.2175221595  MEMB      98              0.0000000000
     12142        98  PYPG      H8S            31.1961471363       37.0517535432       12.5674302994  MEMB      98              0.0000000000
     12143        98  PYPG      C29            32.4504712271       36.9395814869       10.7645483749  MEMB      98              0.0000000000
     12144        98  PYPG      H9R            33.4925669781       36.9190879641       11.1161402267  MEMB      98              0.0000000000
     12145        98  PYPG      C210           32.0793654010       36.4766004861        9.5575356342  MEMB      98              0.0000000000
     12146        98  PYPG      H10R           32.8518379934       35.9364660965        8.9904899322  MEMB      98              0.0000000000
     12147        98  PYPG      C211           30.6948205361       36.5533535149        8.8905355695  MEMB      98              0.0000000000
     12148        98  PYPG      H11R           29.9605847400       37.0518596140        9.5588998934  MEMB      98              0.0000000000
     12149        98  PYPG      H11S           30.2905682725       35.5513712985        8.6318221316  MEMB      98              0.0000000000
     12150        98  PYPG      C212           30.7493536127       37.3167266536        7.5463797943  MEMB      98              0.0000000000
     12151        98  PYPG      H12R           31.2621970834       38.3008385431        7.5996380577  MEMB      98              0.0000000000
     12152        98  PYPG      H12S           29.6768822455       37.4310724419        7.2798248521  MEMB      98              0.0000000000
     12153        98  PYPG      C213           31.3262955874       36.4697329792        6.4685377956  MEMB      98              0.0000000000
     12154        98  PYPG      H13R           30.7421330444       35.5247551426        6.4589529756  MEMB      98              0.0000000000
     12155        98  PYPG      H13S           32.3885590713       36.2257977299        6.6839743432  MEMB      98              0.0000000000
     12156        98  PYPG      C214           31.0647949288       36.8883956330        4.8931845753  MEMB      98              0.0000000000
     12157        98  PYPG      H14R           30.0038416668       36.8181593105        4.5710565309  MEMB      98              0.0000000000
     12158        98  PYPG      H14S           31.3864232545       37.9514268799        4.8641857003  MEMB      98              0.0000000000
     12159        98  PYPG      C215           32.0028162852       35.9532424292        4.1191621015  MEMB      98              0.0000000000
     12160        98  PYPG      H15R           31.8617853214       34.9072910970        4.4661734791  MEMB      98              0.0000000000
     12161        98  PYPG      H15S           33.0953157077       36.1512800865        4.1584910000  MEMB      98              0.0000000000
     12162        98  PYPG      C216           31.6718610577       36.0686707496        2.5631374847  MEMB      98              0.0000000000
     12163        98  PYPG      H16R           30.6252340574       35.7135749489        2.4500030133  MEMB      98              0.0000000000
     12164        98  PYPG      H16S           32.3201688886       35.3871912602        1.9718656663  MEMB      98              0.0000000000
     12165        98  PYPG      H16T           31.8469858909       37.1483683828        2.3684456365  MEMB      98              0.0000000000
     12166        98  PYPG      C33            36.7579227770       38.3897590724       13.9949988765  MEMB      98              0.0000000000
     12167        98  PYPG      H3X            36.0292470227       38.0617051944       14.7668362910  MEMB      98              0.0000000000
     12168        98  PYPG      H3Y            37.3809881691       37.4819136525       13.8469204247  MEMB      98              0.0000000000
     12169        98  PYPG      C34            35.9807686756       38.5158333584       12.7229638031  MEMB      98              0.0000000000
     12170        98  PYPG      H4X            35.2866255479       39.3832241357       12.7120252187  MEMB      98              0.0000000000
     12171        98  PYPG      H4Y            35.3943450285       37.5724412193       12.7019973828  MEMB      98              0.0000000000
     12172        98  PYPG      C35            36.8361959440       38.5420131899       11.5095239435  MEMB      98              0.0000000000
     12173        98  PYPG      H5X            37.7627763467       37.9318714059       11.5686567719  MEMB      98              0.0000000000
     12174        98  PYPG      H5Y            37.3152712671       39.5438970729       11.4773308982  MEMB      98              0.0000000000
     12175        98  PYPG      C36            36.0918294658       38.1113862349       10.2700222604  MEMB      98              0.0000000000
     12176        98  PYPG      H6X            35.3363677001       38.9238043393       10.2102276320  MEMB      98              0.0000000000
     12177        98  PYPG      H6Y            35.6779035892       37.0807067571       10.2962177378  MEMB      98              0.0000000000
     12178        98  PYPG      C37            36.9665089900       37.9402862776        9.0673514098  MEMB      98              0.0000000000
     12179        98  PYPG      H7X            37.5167057540       38.8633965058        8.7854426552  MEMB      98              0.0000000000
     12180        98  PYPG      H7Y            37.6271319685       37.0826673938        9.3171277344  MEMB      98              0.0000000000
     12181        98  PYPG      C38            36.1736883492       37.5035108309        7.8134716004  MEMB      98              0.0000000000
     12182        98  PYPG      H8X            35.2819896065       38.1456867484        7.6497506841  MEMB      98              0.0000000000
     12183        98  PYPG      H8Y            35.7699069466       36.4954421603        8.0481611587  MEMB      98              0.0000000000
     12184        98  PYPG      C39            36.8837446425       37.3360826607        6.4579138264  MEMB      98              0.0000000000
     12185        98  PYPG      H9X            36.3330705545       36.5082843869        5.9621015058  MEMB      98              0.0000000000
     12186        98  PYPG      H9Y            37.8726965454       36.9309715135        6.7615253652  MEMB      98              0.0000000000
     12187        98  PYPG      C310           37.1722018632       38.5109425690        5.5758504100  MEMB      98              0.0000000000
     12188        98  PYPG      H10X           37.7072161411       39.3321322257        6.0990405034  MEMB      98              0.0000000000
     12189        98  PYPG      H10Y           36.2329213371       39.0134885397        5.2603814441  MEMB      98              0.0000000000
     12190        98  PYPG      C311           37.8977617049       38.1249935591        4.2552398750  MEMB      98              0.0000000000
     12191        98  PYPG      H11X           38.9123119350       37.8752786337        4.6329322995  MEMB      98              0.0000000000
     12192        98  PYPG      H11Y           37.9036371356       39.0502865516        3.6403261202  MEMB      98              0.0000000000
     12193        98  PYPG      C312           37.4516412232       36.8967199745        3.5371453483  MEMB      98              0.0000000000
     12194        98  PYPG      H12X           38.0699714895       36.8009345990        2.6190966181  MEMB      98              0.0000000000
     12195        98  PYPG      H12Y           37.5643953478       35.9025794996        4.0201493712  MEMB      98              0.0000000000
     12196        98  PYPG      C313           35.9257753017       36.9835807919        3.0720511964  MEMB      98              0.0000000000
     12197        98  PYPG      H13X           35.6544894984       35.9936687065        2.6468462720  MEMB      98              0.0000000000
     12198        98  PYPG      H13Y           35.3670732518       36.9905819697        4.0323245385  MEMB      98              0.0000000000
     12199        98  PYPG      C314           35.4954274153       38.1156610277        2.1950104490  MEMB      98              0.0000000000
     12200        98  PYPG      H14X           34.4368656584       38.3096746115        2.4709204765  MEMB      98              0.0000000000
     12201        98  PYPG      H14Y           36.1577528589       39.0035301393        2.2806530393  MEMB      98              0.0000000000
     12202        98  PYPG      C315           35.4670365312       37.7007693418        0.6103994453  MEMB      98              0.0000000000
     12203        98  PYPG      H15X           36.4173049743       37.1940431048        0.3373813652  MEMB      98              0.0000000000
     12204        98  PYPG      H15Y           34.7318738811       36.9072128934        0.3571711559  MEMB      98              0.0000000000
     12205        98  PYPG      C316           35.2961392000       38.8174630752       -0.4350999508  MEMB      98              0.0000000000
     12206        98  PYPG      H16X           36.1451926403       39.5336143422       -0.4586967804  MEMB      98              0.0000000000
     12207        98  PYPG      H16Y           34.3292362606       39.3077291807       -0.1920809602  MEMB      98              0.0000000000
     12208        98  PYPG      H16Z           35.2998278477       38.3322522734       -1.4345384696  MEMB      98              0.0000000000
     12209        99  POPE      N              36.8960390422      -36.9080661466       16.6107720999  MEMB      99              0.0000000000
     12210        99  POPE      HN1            37.8859759521      -37.0375096078       16.3194486326  MEMB      99              0.0000000000
     12211        99  POPE      HN2            36.4880006642      -37.8473777418       16.7918751621  MEMB      99              0.0000000000
     12212        99  POPE      HN3            36.3998481694      -36.4713783238       15.8078408927  MEMB      99              0.0000000000
     12213        99  POPE      C12            36.9115037079      -36.2010310797       17.9359308720  MEMB      99              0.0000000000
     12214        99  POPE      H12A           36.6332253590      -37.0153762689       18.6385859849  MEMB      99              0.0000000000
     12215        99  POPE      H12B           36.0152428372      -35.5444999148       17.9380270457  MEMB      99              0.0000000000
     12216        99  POPE      C11            38.2364411289      -35.5993534378       18.2159321679  MEMB      99              0.0000000000
     12217        99  POPE      H11A           38.6156357610      -34.9058088750       17.4352091973  MEMB      99              0.0000000000
     12218        99  POPE      H11B           39.0515521576      -36.3416280685       18.0782970871  MEMB      99              0.0000000000
     12219        99  POPE      P              38.9011365450      -33.6823673044       19.9072520131  MEMB      99              0.0000000000
     12220        99  POPE      O13            40.3772421696      -33.8471078077       19.5856420315  MEMB      99              0.0000000000
     12221        99  POPE      O14            38.6048132321      -33.4674813477       21.3544093243  MEMB      99              0.0000000000
     12222        99  POPE      O11            38.2776464326      -32.5781293165       18.9671583508  MEMB      99              0.0000000000
     12223        99  POPE      O12            38.0829569414      -34.8970939630       19.4229031167  MEMB      99              0.0000000000
     12224        99  POPE      C1             36.9196249012      -32.3097007156       18.9771439011  MEMB      99              0.0000000000
     12225        99  POPE      HA             36.5748424236      -31.8609549139       19.9332158135  MEMB      99              0.0000000000
     12226        99  POPE      HB             36.3193111667      -33.2445478092       18.9748077157  MEMB      99              0.0000000000
     12227        99  POPE      C2             36.5784600725      -31.2266182883       17.9429668312  MEMB      99              0.0000000000
     12228        99  POPE      HS             35.5229946007      -30.8991486386       18.0573236671  MEMB      99              0.0000000000
     12229        99  POPE      O21            36.8242800662      -31.8914114884       16.7413179225  MEMB      99              0.0000000000
     12230        99  POPE      C21            35.8016859771      -32.0585597998       15.8846633553  MEMB      99              0.0000000000
     12231        99  POPE      O22            34.6738094193      -31.6201272830       16.1582847972  MEMB      99              0.0000000000
     12232        99  POPE      C22            36.1274995750      -32.7372056113       14.5037947739  MEMB      99              0.0000000000
     12233        99  POPE      H2R            36.8022800640      -33.5723704543       14.7892621613  MEMB      99              0.0000000000
     12234        99  POPE      H2S            36.7445081058      -31.9985222144       13.9488456539  MEMB      99              0.0000000000
     12235        99  POPE      C3             37.4776289734      -30.0181436769       18.1399641486  MEMB      99              0.0000000000
     12236        99  POPE      HX             37.3690453671      -29.5943914958       19.1612207864  MEMB      99              0.0000000000
     12237        99  POPE      HY             37.0389619277      -29.3497076633       17.3685463570  MEMB      99              0.0000000000
     12238        99  POPE      O31            38.8572399091      -30.2789421548       17.8712006681  MEMB      99              0.0000000000
     12239        99  POPE      C31            39.3956144027      -30.0939068894       16.6322674312  MEMB      99              0.0000000000
     12240        99  POPE      O32            38.6931353550      -29.8052563501       15.6640728983  MEMB      99              0.0000000000
     12241        99  POPE      C32            40.9103145695      -30.3940888587       16.5923679361  MEMB      99              0.0000000000
     12242        99  POPE      H2X            41.2401654836      -30.7029323166       17.6073237385  MEMB      99              0.0000000000
     12243        99  POPE      H2Y            41.3379340150      -29.4431882265       16.2086360079  MEMB      99              0.0000000000
     12244        99  POPE      C23            34.9807335687      -33.0773307595       13.6366972585  MEMB      99              0.0000000000
     12245        99  POPE      H3R            35.4544148350      -33.4421468090       12.7002908329  MEMB      99              0.0000000000
     12246        99  POPE      H3S            34.3360442606      -32.1918859646       13.4504597090  MEMB      99              0.0000000000
     12247        99  POPE      C24            33.9875233270      -34.1391726081       14.0646785963  MEMB      99              0.0000000000
     12248        99  POPE      H4R            33.8536178714      -33.9850900686       15.1567634039  MEMB      99              0.0000000000
     12249        99  POPE      H4S            34.4712485418      -35.1174219513       13.8564502919  MEMB      99              0.0000000000
     12250        99  POPE      C25            32.6403495782      -34.3736091441       13.2709119151  MEMB      99              0.0000000000
     12251        99  POPE      H5R            32.0953723993      -33.4073734096       13.2100060783  MEMB      99              0.0000000000
     12252        99  POPE      H5S            32.0393271620      -34.8892503192       14.0501469733  MEMB      99              0.0000000000
     12253        99  POPE      C26            32.7045126650      -35.1409388430       11.9326766324  MEMB      99              0.0000000000
     12254        99  POPE      H6R            31.6479850883      -35.2928970905       11.6244901902  MEMB      99              0.0000000000
     12255        99  POPE      H6S            33.2160050799      -36.1124046850       12.1028254332  MEMB      99              0.0000000000
     12256        99  POPE      C27            33.5612511640      -34.4873922019       10.7793100541  MEMB      99              0.0000000000
     12257        99  POPE      H7R            34.5953686327      -34.4112631800       11.1782165468  MEMB      99              0.0000000000
     12258        99  POPE      H7S            33.1751419239      -33.4708022422       10.5517451796  MEMB      99              0.0000000000
     12259        99  POPE      C28            33.6447660484      -35.3437630617        9.5242886368  MEMB      99              0.0000000000
     12260        99  POPE      H8R            33.9104722032      -34.6016885919        8.7413155183  MEMB      99              0.0000000000
     12261        99  POPE      H8S            32.6158607976      -35.7593587437        9.5786494680  MEMB      99              0.0000000000
     12262        99  POPE      C29            34.5741444420      -36.5112276057        9.6701819695  MEMB      99              0.0000000000
     12263        99  POPE      H91            34.5927238855      -36.9241468190       10.6895699562  MEMB      99              0.0000000000
     12264        99  POPE      C210           35.5617599719      -36.8501826976        8.7797376570  MEMB      99              0.0000000000
     12265        99  POPE      H101           36.2407602185      -37.6950324579        8.9673205009  MEMB      99              0.0000000000
     12266        99  POPE      C211           35.9745698942      -36.1529937116        7.5117248069  MEMB      99              0.0000000000
     12267        99  POPE      H11R           37.0181631033      -35.7922525339        7.6346077964  MEMB      99              0.0000000000
     12268        99  POPE      H11S           35.3373339412      -35.2992143895        7.1965859811  MEMB      99              0.0000000000
     12269        99  POPE      C212           36.0838421809      -37.0536186124        6.1802361587  MEMB      99              0.0000000000
     12270        99  POPE      H12R           35.1117992892      -37.5680173132        6.0226057673  MEMB      99              0.0000000000
     12271        99  POPE      H12S           36.8056785554      -37.8745908178        6.3784226145  MEMB      99              0.0000000000
     12272        99  POPE      C213           36.3696309974      -36.2433324152        4.9183661099  MEMB      99              0.0000000000
     12273        99  POPE      H13R           37.1845452455      -35.5002157440        5.0525799253  MEMB      99              0.0000000000
     12274        99  POPE      H13S           35.5084422751      -35.6434278151        4.5539623807  MEMB      99              0.0000000000
     12275        99  POPE      C214           36.8302605282      -37.1097505903        3.7801109090  MEMB      99              0.0000000000
     12276        99  POPE      H14R           36.2303669375      -38.0343428417        3.6401893756  MEMB      99              0.0000000000
     12277        99  POPE      H14S           37.9006419939      -37.2946250892        4.0134054136  MEMB      99              0.0000000000
     12278        99  POPE      C215           36.9958395898      -36.2923475116        2.4695713396  MEMB      99              0.0000000000
     12279        99  POPE      H15R           37.5111088156      -35.3088399387        2.5086997940  MEMB      99              0.0000000000
     12280        99  POPE      H15S           36.0262605235      -35.8542787705        2.1496782745  MEMB      99              0.0000000000
     12281        99  POPE      C216           37.5748227208      -37.0746437926        1.2578333148  MEMB      99              0.0000000000
     12282        99  POPE      H16R           36.8318617135      -37.8403456751        0.9479452341  MEMB      99              0.0000000000
     12283        99  POPE      H16S           38.5094783154      -37.6263686935        1.4951939543  MEMB      99              0.0000000000
     12284        99  POPE      C217           37.7689452347      -36.0248952736        0.0796211225  MEMB      99              0.0000000000
     12285        99  POPE      H17R           38.6954515054      -36.3713186419       -0.4262435040  MEMB      99              0.0000000000
     12286        99  POPE      H17S           37.7797162764      -34.9649692139        0.4124291914  MEMB      99              0.0000000000
     12287        99  POPE      C218           36.7394794910      -36.1985167692       -1.0761616498  MEMB      99              0.0000000000
     12288        99  POPE      H18R           35.7152987380      -36.3374743349       -0.6686501320  MEMB      99              0.0000000000
     12289        99  POPE      H18S           36.9828232519      -37.1317040305       -1.6277644898  MEMB      99              0.0000000000
     12290        99  POPE      H18T           36.7453742143      -35.3274589150       -1.7657586612  MEMB      99              0.0000000000
     12291        99  POPE      C33            41.2763114031      -31.3467607343       15.4402271132  MEMB      99              0.0000000000
     12292        99  POPE      H3X            42.3694410858      -31.4565817490       15.2749152374  MEMB      99              0.0000000000
     12293        99  POPE      H3Y            40.8834941242      -30.8973443897       14.5031889711  MEMB      99              0.0000000000
     12294        99  POPE      C34            40.8261352429      -32.7163170474       15.6085140059  MEMB      99              0.0000000000
     12295        99  POPE      H4X            39.7546523629      -32.7250566115       15.9020600187  MEMB      99              0.0000000000
     12296        99  POPE      H4Y            41.4381064796      -33.2420952156       16.3723002887  MEMB      99              0.0000000000
     12297        99  POPE      C35            40.7721576959      -33.6209225893       14.4019675131  MEMB      99              0.0000000000
     12298        99  POPE      H5X            40.2560043948      -33.1321201899       13.5481647503  MEMB      99              0.0000000000
     12299        99  POPE      H5Y            40.0625853701      -34.4003685210       14.7530975774  MEMB      99              0.0000000000
     12300        99  POPE      C36            42.1663656918      -34.0565847531       13.7719404264  MEMB      99              0.0000000000
     12301        99  POPE      H6X            42.7387876172      -34.5025197030       14.6132466211  MEMB      99              0.0000000000
     12302        99  POPE      H6Y            42.7141170110      -33.1580780510       13.4156047488  MEMB      99              0.0000000000
     12303        99  POPE      C37            41.9157235333      -35.1830517289       12.6170857024  MEMB      99              0.0000000000
     12304        99  POPE      H7X            41.3118004682      -35.9867227896       13.0900667272  MEMB      99              0.0000000000
     12305        99  POPE      H7Y            42.8517976007      -35.7261571567       12.3658434757  MEMB      99              0.0000000000
     12306        99  POPE      C38            41.2314682450      -34.8092747838       11.3075186118  MEMB      99              0.0000000000
     12307        99  POPE      H8X            41.9577142407      -34.2003528219       10.7277753459  MEMB      99              0.0000000000
     12308        99  POPE      H8Y            40.2683876462      -34.2710985168       11.4385258186  MEMB      99              0.0000000000
     12309        99  POPE      C39            40.8378846793      -35.9811994187       10.4027508409  MEMB      99              0.0000000000
     12310        99  POPE      H9X            40.1664924136      -36.7218437457       10.8875183519  MEMB      99              0.0000000000
     12311        99  POPE      H9Y            41.6375453046      -36.5594029119        9.8923149018  MEMB      99              0.0000000000
     12312        99  POPE      C310           39.9494205738      -35.4417426433        9.2531079608  MEMB      99              0.0000000000
     12313        99  POPE      H10X           39.1204400467      -34.8929905385        9.7490753103  MEMB      99              0.0000000000
     12314        99  POPE      H10Y           39.5713874080      -36.2866795740        8.6387032860  MEMB      99              0.0000000000
     12315        99  POPE      C311           40.6443910093      -34.5058721570        8.2135793816  MEMB      99              0.0000000000
     12316        99  POPE      H11X           41.5798519813      -35.0575085928        7.9792055222  MEMB      99              0.0000000000
     12317        99  POPE      H11Y           40.9220062446      -33.4727171700        8.5133146735  MEMB      99              0.0000000000
     12318        99  POPE      C312           39.8090492006      -34.2403154738        6.9049665177  MEMB      99              0.0000000000
     12319        99  POPE      H12X           38.7970699127      -33.8377116590        7.1243504014  MEMB      99              0.0000000000
     12320        99  POPE      H12Y           39.6725378913      -35.1843296484        6.3352972752  MEMB      99              0.0000000000
     12321        99  POPE      C313           40.4464977191      -33.3139006202        5.7793288306  MEMB      99              0.0000000000
     12322        99  POPE      H13X           41.3650917426      -33.8559277497        5.4683428478  MEMB      99              0.0000000000
     12323        99  POPE      H13Y           40.8218889669      -32.3820172862        6.2536663153  MEMB      99              0.0000000000
     12324        99  POPE      C314           39.5211610629      -33.0107258248        4.5780224893  MEMB      99              0.0000000000
     12325        99  POPE      H14X           39.4339813651      -31.9148837153        4.4172405348  MEMB      99              0.0000000000
     12326        99  POPE      H14Y           38.5187630089      -33.3932415015        4.8664687368  MEMB      99              0.0000000000
     12327        99  POPE      C315           39.9062079491      -33.6879810817        3.2383937596  MEMB      99              0.0000000000
     12328        99  POPE      H15X           39.1942837055      -33.2074811244        2.5336914262  MEMB      99              0.0000000000
     12329        99  POPE      H15Y           39.8444891316      -34.7971609792        3.2536177112  MEMB      99              0.0000000000
     12330        99  POPE      C316           41.2656719396      -33.1541547926        2.6469704808  MEMB      99              0.0000000000
     12331        99  POPE      H16X           41.3767372271      -33.2609070394        1.5467029682  MEMB      99              0.0000000000
     12332        99  POPE      H16Y           42.0529801965      -33.7134776423        3.1961735539  MEMB      99              0.0000000000
     12333        99  POPE      H16Z           41.3653691783      -32.0867148795        2.9384377438  MEMB      99              0.0000000000
     12334       100  POPE      N             -41.2949145744       36.0793108781       19.9325689437  MEMB      100             0.0000000000
     12335       100  POPE      HN1           -40.6096814273       35.5409682571       20.5002332423  MEMB      100             0.0000000000
     12336       100  POPE      HN2           -41.2351468991       37.0600853740       20.2733168552  MEMB      100             0.0000000000
     12337       100  POPE      HN3           -42.1938063923       35.5737836718       20.0668674847  MEMB      100             0.0000000000
     12338       100  POPE      C12           -40.8394521297       36.3979821445       18.5816272381  MEMB      100             0.0000000000
     12339       100  POPE      H12A          -41.1232820713       37.4171294551       18.2423625900  MEMB      100             0.0000000000
     12340       100  POPE      H12B          -41.2374931408       35.6076016281       17.9099257148  MEMB      100             0.0000000000
     12341       100  POPE      C11           -39.2858092011       36.2210612461       18.5050070748  MEMB      100             0.0000000000
     12342       100  POPE      H11A          -39.0377860302       36.4083007636       17.4383548867  MEMB      100             0.0000000000
     12343       100  POPE      H11B          -38.9494441928       35.2042450128       18.8004127369  MEMB      100             0.0000000000
     12344       100  POPE      P             -37.0789379628       37.5195370779       19.0547672531  MEMB      100             0.0000000000
     12345       100  POPE      O13           -36.3904269877       36.2165723409       18.8994925397  MEMB      100             0.0000000000
     12346       100  POPE      O14           -36.5780641898       38.4963729620       20.0389458507  MEMB      100             0.0000000000
     12347       100  POPE      O11           -37.0750808549       38.2707563687       17.6331513832  MEMB      100             0.0000000000
     12348       100  POPE      O12           -38.6774101216       37.2577229515       19.3544397130  MEMB      100             0.0000000000
     12349       100  POPE      C1            -37.9615184968       39.4015770582       17.4847558458  MEMB      100             0.0000000000
     12350       100  POPE      HA            -37.6550579707       40.2283966290       18.1606050966  MEMB      100             0.0000000000
     12351       100  POPE      HB            -39.0170294147       39.0790847971       17.6120995149  MEMB      100             0.0000000000
     12352       100  POPE      C2            -37.9674349030       39.7666575892       15.8841833829  MEMB      100             0.0000000000
     12353       100  POPE      HS            -38.7474082100       40.5517997724       15.7866420830  MEMB      100             0.0000000000
     12354       100  POPE      O21           -38.2951016757       38.5865320623       15.1047877645  MEMB      100             0.0000000000
     12355       100  POPE      C21           -39.5758410724       38.1480857957       15.0901209325  MEMB      100             0.0000000000
     12356       100  POPE      O22           -40.4588748603       38.6784748723       15.6993572048  MEMB      100             0.0000000000
     12357       100  POPE      C22           -39.7818278478       37.0222852043       14.1025438175  MEMB      100             0.0000000000
     12358       100  POPE      H2R           -40.8808871906       36.9534106394       13.9554172537  MEMB      100             0.0000000000
     12359       100  POPE      H2S           -39.3549497610       36.0619102144       14.4627881539  MEMB      100             0.0000000000
     12360       100  POPE      C3            -36.5645730875       40.2709831804       15.4730166564  MEMB      100             0.0000000000
     12361       100  POPE      HX            -35.9240282410       39.4203237236       15.7898791936  MEMB      100             0.0000000000
     12362       100  POPE      HY            -36.3201429798       41.1345773589       16.1278298545  MEMB      100             0.0000000000
     12363       100  POPE      O31           -36.4514762821       40.5056003596       14.0495901023  MEMB      100             0.0000000000
     12364       100  POPE      C31           -36.9080962929       41.7083148258       13.7345606187  MEMB      100             0.0000000000
     12365       100  POPE      O32           -37.4486257608       42.4958631013       14.5085274879  MEMB      100             0.0000000000
     12366       100  POPE      C32           -36.5473470262       41.9937383641       12.2518915400  MEMB      100             0.0000000000
     12367       100  POPE      H2X           -37.0190064134       41.1712680800       11.6727534608  MEMB      100             0.0000000000
     12368       100  POPE      H2Y           -35.4506690243       42.0228961362       12.0764823796  MEMB      100             0.0000000000
     12369       100  POPE      C23           -39.0197949821       37.5220025279       12.8074236774  MEMB      100             0.0000000000
     12370       100  POPE      H3R           -37.9222320689       37.4432903683       12.9606592719  MEMB      100             0.0000000000
     12371       100  POPE      H3S           -39.2963506430       38.5968058037       12.7560818379  MEMB      100             0.0000000000
     12372       100  POPE      C24           -39.3908147541       36.7634956391       11.5243688606  MEMB      100             0.0000000000
     12373       100  POPE      H4R           -40.3566804100       37.2195071459       11.2186269789  MEMB      100             0.0000000000
     12374       100  POPE      H4S           -39.4087523851       35.6684711005       11.7112381042  MEMB      100             0.0000000000
     12375       100  POPE      C25           -38.5563394834       37.0634533984       10.3659768685  MEMB      100             0.0000000000
     12376       100  POPE      H5R           -38.3407909327       38.1528314504       10.3993703876  MEMB      100             0.0000000000
     12377       100  POPE      H5S           -39.1346530126       36.8418535977        9.4436061128  MEMB      100             0.0000000000
     12378       100  POPE      C26           -37.1948750797       36.2932656113       10.3884118180  MEMB      100             0.0000000000
     12379       100  POPE      H6R           -37.3849242775       35.2460674318       10.0696986982  MEMB      100             0.0000000000
     12380       100  POPE      H6S           -36.8311537890       36.3342989757       11.4373850590  MEMB      100             0.0000000000
     12381       100  POPE      C27           -36.1524417358       37.1107265696        9.5742656831  MEMB      100             0.0000000000
     12382       100  POPE      H7R           -35.2837861091       37.2201511654       10.2582135333  MEMB      100             0.0000000000
     12383       100  POPE      H7S           -36.4944506803       38.1330172341        9.3054294122  MEMB      100             0.0000000000
     12384       100  POPE      C28           -35.6815477626       36.5047667391        8.1735085500  MEMB      100             0.0000000000
     12385       100  POPE      H8R           -35.1506226425       37.2975706508        7.6043854382  MEMB      100             0.0000000000
     12386       100  POPE      H8S           -36.5654793322       36.1995887896        7.5736314879  MEMB      100             0.0000000000
     12387       100  POPE      C29           -34.7006517055       35.3832916415        8.5225285732  MEMB      100             0.0000000000
     12388       100  POPE      H91           -35.1231909284       34.3688490019        8.4738801963  MEMB      100             0.0000000000
     12389       100  POPE      C210          -33.3641383902       35.4771259293        8.7265703533  MEMB      100             0.0000000000
     12390       100  POPE      H101          -32.8953882285       34.4823686203        8.7536031933  MEMB      100             0.0000000000
     12391       100  POPE      C211          -32.5329264049       36.7380099917        8.6478308310  MEMB      100             0.0000000000
     12392       100  POPE      H11R          -31.7942583548       36.7329736379        9.4776893740  MEMB      100             0.0000000000
     12393       100  POPE      H11S          -33.0672471722       37.7002254832        8.7993684084  MEMB      100             0.0000000000
     12394       100  POPE      C212          -31.7024394212       37.0492765402        7.3418704334  MEMB      100             0.0000000000
     12395       100  POPE      H12R          -30.9634526910       36.2454886881        7.1365787116  MEMB      100             0.0000000000
     12396       100  POPE      H12S          -31.1308009486       38.0018166428        7.3271072682  MEMB      100             0.0000000000
     12397       100  POPE      C213          -32.5775045427       37.1351541645        6.0802342264  MEMB      100             0.0000000000
     12398       100  POPE      H13R          -33.1784246345       38.0672196018        6.1470910833  MEMB      100             0.0000000000
     12399       100  POPE      H13S          -33.4300875883       36.4229101550        6.0916919530  MEMB      100             0.0000000000
     12400       100  POPE      C214          -31.7517234383       36.9676558263        4.7848467522  MEMB      100             0.0000000000
     12401       100  POPE      H14R          -31.4604906833       35.9025142245        4.6624627399  MEMB      100             0.0000000000
     12402       100  POPE      H14S          -30.8495822168       37.5979618947        4.9370859995  MEMB      100             0.0000000000
     12403       100  POPE      C215          -32.4780466981       37.4659517527        3.5588623245  MEMB      100             0.0000000000
     12404       100  POPE      H15R          -33.4989238400       37.0279555999        3.5759021316  MEMB      100             0.0000000000
     12405       100  POPE      H15S          -31.9439538124       37.0454518643        2.6800869111  MEMB      100             0.0000000000
     12406       100  POPE      C216          -32.4965754516       39.0118931520        3.3001216608  MEMB      100             0.0000000000
     12407       100  POPE      H16R          -31.4642657801       39.4053003298        3.4179680614  MEMB      100             0.0000000000
     12408       100  POPE      H16S          -33.1163026861       39.3611599191        4.1535108593  MEMB      100             0.0000000000
     12409       100  POPE      C217          -33.1235597649       39.4601870116        1.9383801751  MEMB      100             0.0000000000
     12410       100  POPE      H17R          -33.9824500004       38.7732839634        1.7809224154  MEMB      100             0.0000000000
     12411       100  POPE      H17S          -32.2720702390       39.4187965989        1.2259384475  MEMB      100             0.0000000000
     12412       100  POPE      C218          -33.5098470808       40.9682938518        1.8712989236  MEMB      100             0.0000000000
     12413       100  POPE      H18R          -32.7302865184       41.6722857932        2.2332405876  MEMB      100             0.0000000000
     12414       100  POPE      H18S          -34.4854740042       41.2861901307        2.2972293007  MEMB      100             0.0000000000
     12415       100  POPE      H18T          -33.6329512903       41.2184373520        0.7958487436  MEMB      100             0.0000000000
     12416       100  POPE      C33           -37.2861598807       43.3317122398       11.8118438608  MEMB      100             0.0000000000
     12417       100  POPE      H3X           -36.7697626086       44.1638916228       12.3363749305  MEMB      100             0.0000000000
     12418       100  POPE      H3Y           -38.3407278204       43.2375224727       12.1484981757  MEMB      100             0.0000000000
     12419       100  POPE      C34           -37.2186760958       43.6572483175       10.2657887074  MEMB      100             0.0000000000
     12420       100  POPE      H4X           -36.1808096679       43.6683444607        9.8695177895  MEMB      100             0.0000000000
     12421       100  POPE      H4Y           -37.6590360277       44.6745572930       10.1917219863  MEMB      100             0.0000000000
     12422       100  POPE      C35           -38.1042488238       42.7030698787        9.4573644380  MEMB      100             0.0000000000
     12423       100  POPE      H5X           -38.5179359885       43.3573639440        8.6604425604  MEMB      100             0.0000000000
     12424       100  POPE      H5Y           -38.8709145233       42.2400083097       10.1147213320  MEMB      100             0.0000000000
     12425       100  POPE      C36           -37.2794429694       41.6068067942        8.7296704333  MEMB      100             0.0000000000
     12426       100  POPE      H6X           -37.8834498725       40.6894216757        8.5626344294  MEMB      100             0.0000000000
     12427       100  POPE      H6Y           -36.4336038746       41.3699863162        9.4099597810  MEMB      100             0.0000000000
     12428       100  POPE      C37           -36.9103434412       42.1186144881        7.3818685869  MEMB      100             0.0000000000
     12429       100  POPE      H7X           -36.4903929733       43.1440138811        7.4626065824  MEMB      100             0.0000000000
     12430       100  POPE      H7Y           -37.8876739598       42.1130659276        6.8535549417  MEMB      100             0.0000000000
     12431       100  POPE      C38           -36.0354749754       41.2033546134        6.4623798730  MEMB      100             0.0000000000
     12432       100  POPE      H8X           -35.2795143596       40.6588976114        7.0676993295  MEMB      100             0.0000000000
     12433       100  POPE      H8Y           -35.4970940222       41.8652136274        5.7507559025  MEMB      100             0.0000000000
     12434       100  POPE      C39           -36.9323240403       40.1068338830        5.7243541326  MEMB      100             0.0000000000
     12435       100  POPE      H9X           -37.8097143480       40.4463167609        5.1333730943  MEMB      100             0.0000000000
     12436       100  POPE      H9Y           -37.2878638723       39.3730213559        6.4789614685  MEMB      100             0.0000000000
     12437       100  POPE      C310          -36.0473461077       39.3115723720        4.7600515829  MEMB      100             0.0000000000
     12438       100  POPE      H10X          -35.0389782698       39.2022289972        5.2134378111  MEMB      100             0.0000000000
     12439       100  POPE      H10Y          -35.8640883157       39.9136419292        3.8444910311  MEMB      100             0.0000000000
     12440       100  POPE      C311          -36.4930359451       37.8673723383        4.3164976149  MEMB      100             0.0000000000
     12441       100  POPE      H11X          -36.6312679237       37.2978320539        5.2603389592  MEMB      100             0.0000000000
     12442       100  POPE      H11Y          -35.7653258992       37.3375678795        3.6652937901  MEMB      100             0.0000000000
     12443       100  POPE      C312          -37.9342295699       37.6872228770        3.6407756434  MEMB      100             0.0000000000
     12444       100  POPE      H12X          -38.5670496593       38.0744974971        4.4677443209  MEMB      100             0.0000000000
     12445       100  POPE      H12Y          -38.2131293161       36.6446728701        3.3769093519  MEMB      100             0.0000000000
     12446       100  POPE      C313          -38.1726438952       38.7002032092        2.5037218062  MEMB      100             0.0000000000
     12447       100  POPE      H13X          -37.8393340724       39.7077758858        2.8323899481  MEMB      100             0.0000000000
     12448       100  POPE      H13Y          -39.2535775017       38.6703512462        2.2487463627  MEMB      100             0.0000000000
     12449       100  POPE      C314          -37.1898523524       38.3015400231        1.3812302209  MEMB      100             0.0000000000
     12450       100  POPE      H14X          -37.3875346943       37.2520345982        1.0749934286  MEMB      100             0.0000000000
     12451       100  POPE      H14Y          -36.1414470494       38.4280517133        1.7264285910  MEMB      100             0.0000000000
     12452       100  POPE      C315          -37.3758145046       39.2545964961        0.1426826386  MEMB      100             0.0000000000
     12453       100  POPE      H15X          -36.6914876975       38.9883513560       -0.6910623278  MEMB      100             0.0000000000
     12454       100  POPE      H15Y          -37.0327979941       40.2581549833        0.4736370513  MEMB      100             0.0000000000
     12455       100  POPE      C316          -38.7514292850       39.1051333153       -0.4327586239  MEMB      100             0.0000000000
     12456       100  POPE      H16X          -38.7735767993       39.7116653510       -1.3633222339  MEMB      100             0.0000000000
     12457       100  POPE      H16Y          -39.4736474092       39.6393774351        0.2209281586  MEMB      100             0.0000000000
     12458       100  POPE      H16Z          -39.1615726618       38.1140704489       -0.7224097762  MEMB      100             0.0000000000
     12459       101  PMPG      C13            -2.7743467990       -3.3090513310      -18.9773902617  MEMB      101             0.0000000000
     12460       101  PMPG      H13A           -2.5284136083       -3.3219870059      -20.0607509210  MEMB      101             0.0000000000
     12461       101  PMPG      H13B           -3.5229984419       -4.1088725860      -18.7926522882  MEMB      101             0.0000000000
     12462       101  PMPG      OC3            -3.3463289690       -2.0235456417      -18.7919407775  MEMB      101             0.0000000000
     12463       101  PMPG      HO3            -2.7736448739       -1.3366051888      -19.1408617477  MEMB      101             0.0000000000
     12464       101  PMPG      C12            -1.4912601746       -3.4350084546      -18.1564337930  MEMB      101             0.0000000000
     12465       101  PMPG      H12A           -0.9916180804       -4.3822229619      -18.4661457476  MEMB      101             0.0000000000
     12466       101  PMPG      OC2            -1.8043620189       -3.5359649833      -16.7665359894  MEMB      101             0.0000000000
     12467       101  PMPG      HO2            -0.9234687344       -3.4739360496      -16.3365403235  MEMB      101             0.0000000000
     12468       101  PMPG      C11            -0.3796147955       -2.3318588534      -18.2904319793  MEMB      101             0.0000000000
     12469       101  PMPG      H11A            0.1750686139       -2.5591285569      -17.3550199301  MEMB      101             0.0000000000
     12470       101  PMPG      H11B           -0.8723594521       -1.3369196124      -18.2501870893  MEMB      101             0.0000000000
     12471       101  PMPG      P               1.3415204887       -1.2680953486      -19.8938207906  MEMB      101             0.0000000000
     12472       101  PMPG      O13             0.4443112724       -0.4038967202      -20.6337728758  MEMB      101             0.0000000000
     12473       101  PMPG      O14             2.5241718203       -1.7610845215      -20.5164338838  MEMB      101             0.0000000000
     12474       101  PMPG      O11             1.7910322297       -0.5524732021      -18.6031781319  MEMB      101             0.0000000000
     12475       101  PMPG      O12             0.4839414843       -2.5097145393      -19.3700615219  MEMB      101             0.0000000000
     12476       101  PMPG      C1              2.8778533379       -0.9319889070      -17.7992733432  MEMB      101             0.0000000000
     12477       101  PMPG      HA              3.5797887117       -0.0766438771      -17.8992364487  MEMB      101             0.0000000000
     12478       101  PMPG      HB              3.2502225080       -1.9352572665      -18.0977947511  MEMB      101             0.0000000000
     12479       101  PMPG      C2              2.5915576588       -0.9868347262      -16.2541861703  MEMB      101             0.0000000000
     12480       101  PMPG      HS              1.8558927989       -1.8135695823      -16.1560663122  MEMB      101             0.0000000000
     12481       101  PMPG      O21             2.1912297120        0.2731309144      -15.6739822010  MEMB      101             0.0000000000
     12482       101  PMPG      C21             1.5049247357        0.2038683951      -14.5474628925  MEMB      101             0.0000000000
     12483       101  PMPG      O22             0.9390604264       -0.8159400533      -14.0919103971  MEMB      101             0.0000000000
     12484       101  PMPG      C22             1.4259343001        1.5904219046      -13.8339196075  MEMB      101             0.0000000000
     12485       101  PMPG      H2R             1.3652772356        2.3999496977      -14.5924090761  MEMB      101             0.0000000000
     12486       101  PMPG      H2S             2.3419482130        1.7395572537      -13.2231835313  MEMB      101             0.0000000000
     12487       101  PMPG      C3              3.8950127487       -1.4690582874      -15.5628317418  MEMB      101             0.0000000000
     12488       101  PMPG      HX              4.7235603522       -0.7318506014      -15.6288233220  MEMB      101             0.0000000000
     12489       101  PMPG      HY              4.1715684108       -2.3957306007      -16.1097471712  MEMB      101             0.0000000000
     12490       101  PMPG      O31             3.5998998376       -1.8379338760      -14.1702105176  MEMB      101             0.0000000000
     12491       101  PMPG      C31             2.9777098109       -3.0278189590      -13.9497214661  MEMB      101             0.0000000000
     12492       101  PMPG      O32             2.9055338245       -3.9884975189      -14.7288636850  MEMB      101             0.0000000000
     12493       101  PMPG      C32             2.3958692937       -3.0503912420      -12.5168547524  MEMB      101             0.0000000000
     12494       101  PMPG      H2X             1.8338946946       -2.1400052562      -12.2173499899  MEMB      101             0.0000000000
     12495       101  PMPG      H2Y             3.2205488885       -3.1474191185      -11.7787419602  MEMB      101             0.0000000000
     12496       101  PMPG      C23             0.2472878477        1.6719306177      -12.8010917835  MEMB      101             0.0000000000
     12497       101  PMPG      H3R            -0.7468777828        1.3520674109      -13.1800951042  MEMB      101             0.0000000000
     12498       101  PMPG      H3S             0.0021516365        2.7552289505      -12.8274388155  MEMB      101             0.0000000000
     12499       101  PMPG      C24             0.4859508558        1.1446143669      -11.3802646968  MEMB      101             0.0000000000
     12500       101  PMPG      H4R             0.7326610066        0.0621625042      -11.3383984929  MEMB      101             0.0000000000
     12501       101  PMPG      H4S            -0.3635646566        1.3675485705      -10.6998639385  MEMB      101             0.0000000000
     12502       101  PMPG      C25             1.6504965266        1.9220421854      -10.7250598878  MEMB      101             0.0000000000
     12503       101  PMPG      H5R             1.3916405421        3.0018357860      -10.6881745591  MEMB      101             0.0000000000
     12504       101  PMPG      H5S             2.6653992004        1.7887305604      -11.1569412919  MEMB      101             0.0000000000
     12505       101  PMPG      C26             1.6931303361        1.4806664322       -9.3035938279  MEMB      101             0.0000000000
     12506       101  PMPG      H6R             0.7259058962        1.4513353131       -8.7577568957  MEMB      101             0.0000000000
     12507       101  PMPG      H6S             2.3523457560        2.1739118377       -8.7386443566  MEMB      101             0.0000000000
     12508       101  PMPG      C27             2.2864067724        0.1751149377       -9.1619863389  MEMB      101             0.0000000000
     12509       101  PMPG      H7R             3.2097477412        0.0451196767       -9.7660257939  MEMB      101             0.0000000000
     12510       101  PMPG      H7S             1.6580117682       -0.6597480562       -9.5394033076  MEMB      101             0.0000000000
     12511       101  PMPG      C28             2.8411474297       -0.3331615252       -7.8047997536  MEMB      101             0.0000000000
     12512       101  PMPG      H8R             1.9057501461       -0.2260422546       -7.2149870281  MEMB      101             0.0000000000
     12513       101  PMPG      H8S             3.5731541297        0.3652765616       -7.3458091571  MEMB      101             0.0000000000
     12514       101  PMPG      C29             3.3473441401       -1.7141896438       -7.8907901951  MEMB      101             0.0000000000
     12515       101  PMPG      H9R             2.7228869317       -2.5614383574       -8.2465209702  MEMB      101             0.0000000000
     12516       101  PMPG      C217            4.7885932329       -1.8398823043       -8.3216047821  MEMB      101             0.0000000000
     12517       101  PMPG      H17R            4.9943185154       -2.7490917359       -8.8728795545  MEMB      101             0.0000000000
     12518       101  PMPG      H17S            5.1787427876       -0.8356511113       -8.4320226713  MEMB      101             0.0000000000
     12519       101  PMPG      C210            4.4020745251       -2.1123577143       -6.8670628847  MEMB      101             0.0000000000
     12520       101  PMPG      H10R            4.5470218101       -3.1962897741       -6.6710965214  MEMB      101             0.0000000000
     12521       101  PMPG      C211            4.9549078618       -1.1574500105       -5.7592043770  MEMB      101             0.0000000000
     12522       101  PMPG      H11R            5.8829339924       -1.6473027974       -5.3943307955  MEMB      101             0.0000000000
     12523       101  PMPG      H11S            5.3713329208       -0.2858351913       -6.3080204883  MEMB      101             0.0000000000
     12524       101  PMPG      C212            4.0049070879       -0.6764512870       -4.6944950013  MEMB      101             0.0000000000
     12525       101  PMPG      H12R            3.9592525246       -1.3786840564       -3.8347823345  MEMB      101             0.0000000000
     12526       101  PMPG      H12S            2.9574499902       -0.5213131848       -5.0307784928  MEMB      101             0.0000000000
     12527       101  PMPG      C213            4.5609176515        0.6732904898       -4.1131180045  MEMB      101             0.0000000000
     12528       101  PMPG      H13R            5.3818036464        1.1645067505       -4.6780723360  MEMB      101             0.0000000000
     12529       101  PMPG      H13S            5.0354609211        0.3437007964       -3.1641705468  MEMB      101             0.0000000000
     12530       101  PMPG      C214            3.4788568438        1.6233999589       -3.7446466708  MEMB      101             0.0000000000
     12531       101  PMPG      H14R            2.7691905759        1.0200065639       -3.1391629502  MEMB      101             0.0000000000
     12532       101  PMPG      H14S            2.9645446929        1.9029732725       -4.6889146746  MEMB      101             0.0000000000
     12533       101  PMPG      C215            3.8708670763        2.9016106171       -2.9572810503  MEMB      101             0.0000000000
     12534       101  PMPG      H15R            4.0011013884        3.7811126534       -3.6234923680  MEMB      101             0.0000000000
     12535       101  PMPG      H15S            4.8173779649        2.7224542023       -2.4038003382  MEMB      101             0.0000000000
     12536       101  PMPG      C216            2.8758165640        3.3011408950       -1.8235352160  MEMB      101             0.0000000000
     12537       101  PMPG      H16R            1.8692134039        3.0315167172       -2.2087271726  MEMB      101             0.0000000000
     12538       101  PMPG      H16S            2.8539339985        4.3954958826       -1.6331929230  MEMB      101             0.0000000000
     12539       101  PMPG      H16T            3.1161278093        2.8794521910       -0.8241606836  MEMB      101             0.0000000000
     12540       101  PMPG      C33             1.5487722180       -4.3158144272      -12.3307029621  MEMB      101             0.0000000000
     12541       101  PMPG      H3X             2.0429952982       -5.3030730840      -12.4547388972  MEMB      101             0.0000000000
     12542       101  PMPG      H3Y             0.6945697563       -4.4214905627      -13.0331922781  MEMB      101             0.0000000000
     12543       101  PMPG      C34             0.9879122634       -4.4345737107      -10.8370176676  MEMB      101             0.0000000000
     12544       101  PMPG      H4X             1.8897480155       -4.1835876456      -10.2386714804  MEMB      101             0.0000000000
     12545       101  PMPG      H4Y             0.5903444551       -5.4603228623      -10.6817786817  MEMB      101             0.0000000000
     12546       101  PMPG      C35            -0.1471869642       -3.4168352146      -10.3793632401  MEMB      101             0.0000000000
     12547       101  PMPG      H5X            -0.9703997216       -3.5860704136      -11.1059997983  MEMB      101             0.0000000000
     12548       101  PMPG      H5Y             0.1447018419       -2.3466998530      -10.4420716679  MEMB      101             0.0000000000
     12549       101  PMPG      C36            -0.6744480275       -3.6350396377       -9.0643507300  MEMB      101             0.0000000000
     12550       101  PMPG      H6X             0.0862110662       -3.5678444827       -8.2573785185  MEMB      101             0.0000000000
     12551       101  PMPG      H6Y            -1.1688912742       -4.6281833055       -9.1236161449  MEMB      101             0.0000000000
     12552       101  PMPG      C37            -1.8126191958       -2.6387902746       -8.8101956653  MEMB      101             0.0000000000
     12553       101  PMPG      H7X            -2.5112458625       -2.7489962056       -9.6669900643  MEMB      101             0.0000000000
     12554       101  PMPG      H7Y            -1.5130103968       -1.5720380053       -8.7289847688  MEMB      101             0.0000000000
     12555       101  PMPG      C38            -2.5407395093       -3.0314070348       -7.5157167150  MEMB      101             0.0000000000
     12556       101  PMPG      H8X            -2.6710633385       -4.1264494375       -7.6506940281  MEMB      101             0.0000000000
     12557       101  PMPG      H8Y            -3.5694462536       -2.6574987162       -7.3252540746  MEMB      101             0.0000000000
     12558       101  PMPG      C39            -1.6438938479       -2.6105093447       -6.2794357378  MEMB      101             0.0000000000
     12559       101  PMPG      H9X            -1.0901893609       -1.6512677948       -6.3665449324  MEMB      101             0.0000000000
     12560       101  PMPG      H9Y            -0.7886002442       -3.3184061396       -6.2384924926  MEMB      101             0.0000000000
     12561       101  PMPG      C310           -2.4231524572       -2.7050367099       -4.9600577606  MEMB      101             0.0000000000
     12562       101  PMPG      H10X           -3.2101331307       -3.4037557010       -5.3161109130  MEMB      101             0.0000000000
     12563       101  PMPG      H10Y           -2.7707018966       -1.6675393420       -4.7673676102  MEMB      101             0.0000000000
     12564       101  PMPG      C311           -1.5641005677       -3.2441243701       -3.8122532739  MEMB      101             0.0000000000
     12565       101  PMPG      H11X           -1.0489634313       -4.1997012117       -4.0485320242  MEMB      101             0.0000000000
     12566       101  PMPG      H11Y           -2.2898082458       -3.5864301860       -3.0438160141  MEMB      101             0.0000000000
     12567       101  PMPG      C312           -0.6256840828       -2.2474359505       -3.2750494022  MEMB      101             0.0000000000
     12568       101  PMPG      H12X           -1.1725032821       -1.2808136642       -3.2442130117  MEMB      101             0.0000000000
     12569       101  PMPG      H12Y            0.1925351921       -2.2436728669       -4.0265970951  MEMB      101             0.0000000000
     12570       101  PMPG      C313           -0.1776143497       -2.4305153449       -1.8247646653  MEMB      101             0.0000000000
     12571       101  PMPG      H13X            0.5100420386       -3.2963749901       -1.7164306803  MEMB      101             0.0000000000
     12572       101  PMPG      H13Y           -1.1138538521       -2.6123473975       -1.2549280716  MEMB      101             0.0000000000
     12573       101  PMPG      C314            0.3919634172       -1.1197946832       -1.2494358577  MEMB      101             0.0000000000
     12574       101  PMPG      H14X            1.3612181217       -0.7797711361       -1.6728158486  MEMB      101             0.0000000000
     12575       101  PMPG      H14Y            0.7992359208       -1.4651155965       -0.2751643666  MEMB      101             0.0000000000
     12576       101  PMPG      C315           -0.5314621243        0.1126291914       -1.0234033554  MEMB      101             0.0000000000
     12577       101  PMPG      H15X           -1.2992343584       -0.2273451532       -0.2958973254  MEMB      101             0.0000000000
     12578       101  PMPG      H15Y           -0.9520906346        0.4759979498       -1.9853583250  MEMB      101             0.0000000000
     12579       101  PMPG      C316            0.1580867644        1.2341598123       -0.2922254885  MEMB      101             0.0000000000
     12580       101  PMPG      H16X            0.4974997366        0.9756366408        0.7335838948  MEMB      101             0.0000000000
     12581       101  PMPG      H16Y           -0.6359915380        1.9957318225       -0.1380536373  MEMB      101             0.0000000000
     12582       101  PMPG      H16Z            1.0095422297        1.5971476853       -0.9067041212  MEMB      101             0.0000000000
     12583       102  POPE      N               4.5045327962        7.5020601554      -21.1366610769  MEMB      102             0.0000000000
     12584       102  POPE      HN1             5.3718970355        7.6893155842      -20.5942453476  MEMB      102             0.0000000000
     12585       102  POPE      HN2             4.7078280842        6.9056724647      -21.9640622566  MEMB      102             0.0000000000
     12586       102  POPE      HN3             4.2193178071        8.4041189229      -21.5685661957  MEMB      102             0.0000000000
     12587       102  POPE      C12             3.2894135937        7.0964426219      -20.3506633781  MEMB      102             0.0000000000
     12588       102  POPE      H12A            2.5268313054        6.8739532934      -21.1273794438  MEMB      102             0.0000000000
     12589       102  POPE      H12B            2.9925754246        7.9533094721      -19.7088010183  MEMB      102             0.0000000000
     12590       102  POPE      C11             3.3681105529        5.7834880279      -19.5776479603  MEMB      102             0.0000000000
     12591       102  POPE      H11A            3.7989730838        6.0403194959      -18.5863275650  MEMB      102             0.0000000000
     12592       102  POPE      H11B            3.9471832804        5.0050743520      -20.1190055164  MEMB      102             0.0000000000
     12593       102  POPE      P               1.3918687842        4.8688866547      -18.1505350335  MEMB      102             0.0000000000
     12594       102  POPE      O13             0.2744460644        3.9237075649      -18.4824531490  MEMB      102             0.0000000000
     12595       102  POPE      O14             1.0330941016        6.1417861187      -17.4721236499  MEMB      102             0.0000000000
     12596       102  POPE      O11             2.5081507050        4.1333700266      -17.2714924358  MEMB      102             0.0000000000
     12597       102  POPE      O12             2.0443825210        5.2116755508      -19.5584233164  MEMB      102             0.0000000000
     12598       102  POPE      C1              3.0891748505        3.0050557321      -17.8652930671  MEMB      102             0.0000000000
     12599       102  POPE      HA              4.0163389691        3.3733090302      -18.3542486030  MEMB      102             0.0000000000
     12600       102  POPE      HB              2.5026223576        2.5481608243      -18.6908377768  MEMB      102             0.0000000000
     12601       102  POPE      C2              3.7732362980        1.8818275972      -16.9713509886  MEMB      102             0.0000000000
     12602       102  POPE      HS              3.9293492652        0.9979901102      -17.6261646107  MEMB      102             0.0000000000
     12603       102  POPE      O21             2.8366693260        1.4769033402      -15.8977259851  MEMB      102             0.0000000000
     12604       102  POPE      C21             1.7577032233        0.8204291845      -16.1847480258  MEMB      102             0.0000000000
     12605       102  POPE      O22             1.3519031952        0.5420304984      -17.3103797107  MEMB      102             0.0000000000
     12606       102  POPE      C22             0.9412141599        0.3835297898      -14.9597887192  MEMB      102             0.0000000000
     12607       102  POPE      H2R             1.6674799346        0.0780739869      -14.1764907052  MEMB      102             0.0000000000
     12608       102  POPE      H2S             0.3174537817       -0.4758570644      -15.2864361766  MEMB      102             0.0000000000
     12609       102  POPE      C3              5.0864377458        2.4117486176      -16.3997201469  MEMB      102             0.0000000000
     12610       102  POPE      HX              5.8586332829        3.0027393789      -16.9370889467  MEMB      102             0.0000000000
     12611       102  POPE      HY              5.6348691300        1.4875151320      -16.1180520629  MEMB      102             0.0000000000
     12612       102  POPE      O31             4.8208791989        3.1617304762      -15.2512127055  MEMB      102             0.0000000000
     12613       102  POPE      C31             4.7944914045        4.4966518486      -15.2041194909  MEMB      102             0.0000000000
     12614       102  POPE      O32             4.8223212425        5.2209857365      -16.1673345231  MEMB      102             0.0000000000
     12615       102  POPE      C32             4.5801567125        4.8760374220      -13.7305715023  MEMB      102             0.0000000000
     12616       102  POPE      H2X             5.3477188049        4.3499660807      -13.1235965354  MEMB      102             0.0000000000
     12617       102  POPE      H2Y             3.5531396655        4.5847359496      -13.4228373259  MEMB      102             0.0000000000
     12618       102  POPE      C23             0.1326887589        1.6683631293      -14.5441864109  MEMB      102             0.0000000000
     12619       102  POPE      H3R            -0.3097527049        2.2787515634      -15.3602700393  MEMB      102             0.0000000000
     12620       102  POPE      H3S             0.8415101620        2.3619582355      -14.0433675324  MEMB      102             0.0000000000
     12621       102  POPE      C24            -0.9758672986        1.2155793646      -13.5403842514  MEMB      102             0.0000000000
     12622       102  POPE      H4R            -0.4116065657        0.6938669553      -12.7380459378  MEMB      102             0.0000000000
     12623       102  POPE      H4S            -1.7159610944        0.5678904274      -14.0571834567  MEMB      102             0.0000000000
     12624       102  POPE      C25            -1.6986616924        2.3899412683      -12.9085287072  MEMB      102             0.0000000000
     12625       102  POPE      H5R            -2.5020978117        2.1823490486      -12.1698022049  MEMB      102             0.0000000000
     12626       102  POPE      H5S            -2.2921360139        2.9327208525      -13.6750138937  MEMB      102             0.0000000000
     12627       102  POPE      C26            -0.8386250815        3.4772411365      -12.2148094417  MEMB      102             0.0000000000
     12628       102  POPE      H6R            -1.5299823280        4.2251968062      -11.7710660498  MEMB      102             0.0000000000
     12629       102  POPE      H6S            -0.1582118569        3.9158163613      -12.9757371170  MEMB      102             0.0000000000
     12630       102  POPE      C27             0.1493202007        3.0063480255      -11.0888787521  MEMB      102             0.0000000000
     12631       102  POPE      H7R             0.8583829863        2.2507013559      -11.4895649462  MEMB      102             0.0000000000
     12632       102  POPE      H7S            -0.5725430081        2.4768683684      -10.4309385870  MEMB      102             0.0000000000
     12633       102  POPE      C28             0.7826970449        4.1509079627      -10.3286678414  MEMB      102             0.0000000000
     12634       102  POPE      H8R             0.0326597510        4.6848017523       -9.7067976871  MEMB      102             0.0000000000
     12635       102  POPE      H8S             1.0004171679        4.8868371170      -11.1319904248  MEMB      102             0.0000000000
     12636       102  POPE      C29             2.0552848357        3.7744797342       -9.6008987103  MEMB      102             0.0000000000
     12637       102  POPE      H91             2.7905081861        3.1142909537      -10.0842177712  MEMB      102             0.0000000000
     12638       102  POPE      C210            2.3893276900        4.1838592411       -8.3476166000  MEMB      102             0.0000000000
     12639       102  POPE      H101            3.3871628052        4.0593398296       -7.9017246256  MEMB      102             0.0000000000
     12640       102  POPE      C211            1.6494077269        5.0859273762       -7.3838477441  MEMB      102             0.0000000000
     12641       102  POPE      H11R            0.7661944561        5.6116136452       -7.8056412095  MEMB      102             0.0000000000
     12642       102  POPE      H11S            2.1818098966        5.9955055602       -7.0323701191  MEMB      102             0.0000000000
     12643       102  POPE      C212            1.0654598935        4.4408583633       -6.1141217878  MEMB      102             0.0000000000
     12644       102  POPE      H12R            0.3583629266        3.6568167469       -6.4599727569  MEMB      102             0.0000000000
     12645       102  POPE      H12S            0.5194295093        5.2366128379       -5.5637157652  MEMB      102             0.0000000000
     12646       102  POPE      C213            2.1223682411        3.8715018719       -5.1851418340  MEMB      102             0.0000000000
     12647       102  POPE      H13R            2.5995262438        4.7345017098       -4.6734068266  MEMB      102             0.0000000000
     12648       102  POPE      H13S            2.9117608411        3.4020091866       -5.8102469712  MEMB      102             0.0000000000
     12649       102  POPE      C214            1.6406175595        2.9443407287       -4.0880063379  MEMB      102             0.0000000000
     12650       102  POPE      H14R            2.5131951082        2.3537501026       -3.7356823900  MEMB      102             0.0000000000
     12651       102  POPE      H14S            0.8778027904        2.2361927612       -4.4765425689  MEMB      102             0.0000000000
     12652       102  POPE      C215            1.0398564931        3.6199398715       -2.8755117431  MEMB      102             0.0000000000
     12653       102  POPE      H15R            0.4030692283        2.9351936153       -2.2755567005  MEMB      102             0.0000000000
     12654       102  POPE      H15S            0.3678499237        4.4392039649       -3.2094792216  MEMB      102             0.0000000000
     12655       102  POPE      C216            2.0442076454        4.1423210306       -1.8636423567  MEMB      102             0.0000000000
     12656       102  POPE      H16R            2.8104783792        4.7441312474       -2.3974730777  MEMB      102             0.0000000000
     12657       102  POPE      H16S            2.6298607551        3.3783960261       -1.3088908982  MEMB      102             0.0000000000
     12658       102  POPE      C217            1.4129123020        5.0010889654       -0.7999231317  MEMB      102             0.0000000000
     12659       102  POPE      H17R            0.8992758459        5.9161231666       -1.1649041434  MEMB      102             0.0000000000
     12660       102  POPE      H17S            2.2346728368        5.5416903215       -0.2834137948  MEMB      102             0.0000000000
     12661       102  POPE      C218            0.4898025324        4.3520160383        0.2707954399  MEMB      102             0.0000000000
     12662       102  POPE      H18R            1.0576879067        3.4817662091        0.6638518362  MEMB      102             0.0000000000
     12663       102  POPE      H18S           -0.3609855203        3.8388047760       -0.2262896715  MEMB      102             0.0000000000
     12664       102  POPE      H18T            0.2335749971        5.1703746672        0.9771654839  MEMB      102             0.0000000000
     12665       102  POPE      C33             4.7370274270        6.4111574009      -13.6348818593  MEMB      102             0.0000000000
     12666       102  POPE      H3X             3.9382210260        6.8025161702      -14.3005154295  MEMB      102             0.0000000000
     12667       102  POPE      H3Y             5.7139451274        6.7622889389      -14.0306841127  MEMB      102             0.0000000000
     12668       102  POPE      C34             4.3867350074        7.0693020420      -12.2747492955  MEMB      102             0.0000000000
     12669       102  POPE      H4X             3.3541602258        6.8537897391      -11.9259448640  MEMB      102             0.0000000000
     12670       102  POPE      H4Y             4.1985993051        8.1578677616      -12.3928620649  MEMB      102             0.0000000000
     12671       102  POPE      C35             5.4409059914        6.7022721482      -11.2066152977  MEMB      102             0.0000000000
     12672       102  POPE      H5X             6.4374783952        7.0188914489      -11.5820035873  MEMB      102             0.0000000000
     12673       102  POPE      H5Y             5.4117760216        5.5932912280      -11.2668953364  MEMB      102             0.0000000000
     12674       102  POPE      C36             5.1872793218        7.1958814772       -9.7620677430  MEMB      102             0.0000000000
     12675       102  POPE      H6X             6.0293224607        6.8094091517       -9.1489425226  MEMB      102             0.0000000000
     12676       102  POPE      H6Y             4.3536062477        6.5489209597       -9.4145740309  MEMB      102             0.0000000000
     12677       102  POPE      C37             5.0171734083        8.7179851233       -9.5827185183  MEMB      102             0.0000000000
     12678       102  POPE      H7X             4.0505716951        9.1740858733       -9.8859911024  MEMB      102             0.0000000000
     12679       102  POPE      H7Y             5.7318643203        9.2732047943      -10.2271316303  MEMB      102             0.0000000000
     12680       102  POPE      C38             5.2994993260        9.1231383012       -8.1522651811  MEMB      102             0.0000000000
     12681       102  POPE      H8X             5.1589111834       10.2242942551       -8.1074185373  MEMB      102             0.0000000000
     12682       102  POPE      H8Y             6.3203515543        8.8929161986       -7.7791973612  MEMB      102             0.0000000000
     12683       102  POPE      C39             4.1760344328        8.6655547759       -7.1589207763  MEMB      102             0.0000000000
     12684       102  POPE      H9X             4.2763739760        7.7219104014       -6.5811765736  MEMB      102             0.0000000000
     12685       102  POPE      H9Y             3.2418492868        8.5143926628       -7.7409590813  MEMB      102             0.0000000000
     12686       102  POPE      C310            3.7568986199        9.7828224085       -6.0839446305  MEMB      102             0.0000000000
     12687       102  POPE      H10X            3.3178464484       10.6544191555       -6.6148616014  MEMB      102             0.0000000000
     12688       102  POPE      H10Y            4.6854203838       10.2606119137       -5.7046216193  MEMB      102             0.0000000000
     12689       102  POPE      C311            2.7007695519        9.3735147779       -5.0940744139  MEMB      102             0.0000000000
     12690       102  POPE      H11X            1.9620550129        8.7174725800       -5.6022382927  MEMB      102             0.0000000000
     12691       102  POPE      H11Y            2.2310551626       10.2936004765       -4.6852565489  MEMB      102             0.0000000000
     12692       102  POPE      C312            3.1130964274        8.5640756395       -3.7972408738  MEMB      102             0.0000000000
     12693       102  POPE      H12X            3.2115309712        7.4801514030       -4.0202655463  MEMB      102             0.0000000000
     12694       102  POPE      H12Y            2.2518215706        8.5748652612       -3.0955215451  MEMB      102             0.0000000000
     12695       102  POPE      C313            4.2872961237        9.1977480798       -2.9639711525  MEMB      102             0.0000000000
     12696       102  POPE      H13X            5.2134822598        9.2209503077       -3.5771285148  MEMB      102             0.0000000000
     12697       102  POPE      H13Y            4.4515628796        8.4025757946       -2.2056575788  MEMB      102             0.0000000000
     12698       102  POPE      C314            3.8148875531       10.4654217919       -2.1513590278  MEMB      102             0.0000000000
     12699       102  POPE      H14X            3.4517875455       11.2520567194       -2.8468341174  MEMB      102             0.0000000000
     12700       102  POPE      H14Y            4.7602143992       10.7337254919       -1.6330057007  MEMB      102             0.0000000000
     12701       102  POPE      C315            2.8196193127       10.0848280829       -1.0376192772  MEMB      102             0.0000000000
     12702       102  POPE      H15X            3.2454379985        9.1890640597       -0.5370132613  MEMB      102             0.0000000000
     12703       102  POPE      H15Y            1.8968168193        9.7459809298       -1.5552486495  MEMB      102             0.0000000000
     12704       102  POPE      C316            2.4027518409       11.1312577276        0.0521490378  MEMB      102             0.0000000000
     12705       102  POPE      H16X            1.5246240468       10.8854323205        0.6868015152  MEMB      102             0.0000000000
     12706       102  POPE      H16Y            1.9162698514       11.8490648415       -0.6424076256  MEMB      102             0.0000000000
     12707       102  POPE      H16Z            3.1578427511       11.7717797614        0.5560244398  MEMB      102             0.0000000000
     12708       103  PMPE      N              -4.9014986288        6.8854810321      -17.7138500061  MEMB      103             0.0000000000
     12709       103  PMPE      HN1            -5.3216046644        7.5485674884      -17.0316275930  MEMB      103             0.0000000000
     12710       103  PMPE      HN2            -4.0116436505        7.3023183476      -18.0544443934  MEMB      103             0.0000000000
     12711       103  PMPE      HN3            -5.4336328785        6.8367724259      -18.6060722357  MEMB      103             0.0000000000
     12712       103  PMPE      C12            -4.7848695884        5.4360158199      -17.0741047016  MEMB      103             0.0000000000
     12713       103  PMPE      H12A           -5.1302446093        5.5762745640      -16.0275082377  MEMB      103             0.0000000000
     12714       103  PMPE      H12B           -3.7149441356        5.1466705158      -17.1506541533  MEMB      103             0.0000000000
     12715       103  PMPE      C11            -5.7804208001        4.5518440104      -17.7468417430  MEMB      103             0.0000000000
     12716       103  PMPE      H11A           -6.7877670826        5.0137154523      -17.6677890547  MEMB      103             0.0000000000
     12717       103  PMPE      H11B           -5.7989495257        3.5766726549      -17.2148469228  MEMB      103             0.0000000000
     12718       103  PMPE      P              -6.5086254934        3.5160449063      -19.9597700562  MEMB      103             0.0000000000
     12719       103  PMPE      O13            -5.7731978985        2.3218168549      -20.5462275250  MEMB      103             0.0000000000
     12720       103  PMPE      O14            -7.3624073945        4.2952494531      -20.8906229619  MEMB      103             0.0000000000
     12721       103  PMPE      O11            -7.5578674641        2.8637090259      -18.9568242385  MEMB      103             0.0000000000
     12722       103  PMPE      O12            -5.4731981708        4.4354925767      -19.1117587578  MEMB      103             0.0000000000
     12723       103  PMPE      C1             -8.5362796965        1.9383547872      -19.3873547604  MEMB      103             0.0000000000
     12724       103  PMPE      HA             -8.2097783790        1.3431790879      -20.2668340423  MEMB      103             0.0000000000
     12725       103  PMPE      HB             -9.4159996451        2.4781199105      -19.7985329768  MEMB      103             0.0000000000
     12726       103  PMPE      C2             -8.8477724590        0.9386571179      -18.2263599092  MEMB      103             0.0000000000
     12727       103  PMPE      HS             -9.7459355664        0.4093483873      -18.6103609454  MEMB      103             0.0000000000
     12728       103  PMPE      O21            -9.0690216430        1.5996682844      -16.9438839946  MEMB      103             0.0000000000
     12729       103  PMPE      C21           -10.2366398458        2.2830220395      -16.7329700660  MEMB      103             0.0000000000
     12730       103  PMPE      O22           -11.2126253504        2.2632969028      -17.4502742396  MEMB      103             0.0000000000
     12731       103  PMPE      C22           -10.2469587043        3.0492085672      -15.4031057830  MEMB      103             0.0000000000
     12732       103  PMPE      H2R            -9.7614217225        2.4011592008      -14.6424437239  MEMB      103             0.0000000000
     12733       103  PMPE      H2S           -11.2945464219        3.3471926641      -15.1838194678  MEMB      103             0.0000000000
     12734       103  PMPE      C3             -7.7062910707       -0.0956993210      -18.1132184352  MEMB      103             0.0000000000
     12735       103  PMPE      HX             -7.4826099689       -0.3938815779      -19.1598201308  MEMB      103             0.0000000000
     12736       103  PMPE      HY             -8.0388606334       -1.0746245440      -17.7064954296  MEMB      103             0.0000000000
     12737       103  PMPE      O31            -6.5422490259        0.5330595814      -17.5804415443  MEMB      103             0.0000000000
     12738       103  PMPE      C31            -6.3731310219        0.2497618072      -16.2703398851  MEMB      103             0.0000000000
     12739       103  PMPE      O32            -7.0090868409       -0.5643342635      -15.6453669622  MEMB      103             0.0000000000
     12740       103  PMPE      C32            -5.1589831262        1.0967998327      -15.7385319406  MEMB      103             0.0000000000
     12741       103  PMPE      H2X            -4.8011577427        1.8325834921      -16.4901330870  MEMB      103             0.0000000000
     12742       103  PMPE      H2Y            -4.3106345793        0.4243526224      -15.4886513339  MEMB      103             0.0000000000
     12743       103  PMPE      C23            -9.4164312907        4.3378194266      -15.5167148621  MEMB      103             0.0000000000
     12744       103  PMPE      H3R            -9.8466723651        5.0933174078      -16.2084056752  MEMB      103             0.0000000000
     12745       103  PMPE      H3S            -8.4318688272        4.0063451022      -15.9105203969  MEMB      103             0.0000000000
     12746       103  PMPE      C24            -9.2445490979        5.1193571132      -14.2006386772  MEMB      103             0.0000000000
     12747       103  PMPE      H4R           -10.2607589559        5.5045965932      -13.9699252526  MEMB      103             0.0000000000
     12748       103  PMPE      H4S            -8.5811076211        5.9678738433      -14.4730092238  MEMB      103             0.0000000000
     12749       103  PMPE      C25            -8.5641898919        4.4360320978      -13.0437726623  MEMB      103             0.0000000000
     12750       103  PMPE      H5R            -7.5040662670        4.2807645680      -13.3376277126  MEMB      103             0.0000000000
     12751       103  PMPE      H5S            -9.1131185502        3.4917233710      -12.8405998980  MEMB      103             0.0000000000
     12752       103  PMPE      C26            -8.6746013841        5.2981691334      -11.7873156716  MEMB      103             0.0000000000
     12753       103  PMPE      H6R            -9.7423967226        5.5917381565      -11.6981447677  MEMB      103             0.0000000000
     12754       103  PMPE      H6S            -8.0884464086        6.2080423836      -12.0380625903  MEMB      103             0.0000000000
     12755       103  PMPE      C27            -7.9548305788        4.7057353319      -10.4679827287  MEMB      103             0.0000000000
     12756       103  PMPE      H7R            -6.9939449757        5.2585025806      -10.3940347978  MEMB      103             0.0000000000
     12757       103  PMPE      H7S            -7.8349482460        3.6169703624      -10.6538322058  MEMB      103             0.0000000000
     12758       103  PMPE      C28            -8.6116616258        5.0099711237       -9.1923411014  MEMB      103             0.0000000000
     12759       103  PMPE      H8R            -9.6396804039        4.5890434899       -9.1744918584  MEMB      103             0.0000000000
     12760       103  PMPE      H8S            -8.7102701830        6.1139819509       -9.1164629235  MEMB      103             0.0000000000
     12761       103  PMPE      C29            -7.8332955026        4.4659067187       -8.0337232172  MEMB      103             0.0000000000
     12762       103  PMPE      H9R            -7.6576924179        3.3694870242       -8.0704438769  MEMB      103             0.0000000000
     12763       103  PMPE      C217           -8.1116597096        5.0629316501       -6.5895127406  MEMB      103             0.0000000000
     12764       103  PMPE      H17R           -7.9569852206        4.3688652940       -5.7726672861  MEMB      103             0.0000000000
     12765       103  PMPE      H17S           -8.9056259886        5.7992359833       -6.5704744373  MEMB      103             0.0000000000
     12766       103  PMPE      C210           -6.8005160953        5.3757111091       -7.3482270061  MEMB      103             0.0000000000
     12767       103  PMPE      H10R           -5.8766395544        4.7954884094       -7.1381921767  MEMB      103             0.0000000000
     12768       103  PMPE      C211           -6.5995098447        6.8010779529       -7.8227235759  MEMB      103             0.0000000000
     12769       103  PMPE      H11R           -7.5670131630        7.3384317622       -7.7252071687  MEMB      103             0.0000000000
     12770       103  PMPE      H11S           -6.4256711359        6.8639107451       -8.9182385291  MEMB      103             0.0000000000
     12771       103  PMPE      C212           -5.3941518487        7.3898405732       -7.0997681998  MEMB      103             0.0000000000
     12772       103  PMPE      H12R           -5.1649917806        8.2950830105       -7.7017168724  MEMB      103             0.0000000000
     12773       103  PMPE      H12S           -4.5389311722        6.7010759448       -7.2686517570  MEMB      103             0.0000000000
     12774       103  PMPE      C213           -5.5537525549        7.7591725067       -5.5791092502  MEMB      103             0.0000000000
     12775       103  PMPE      H13R           -5.7995838085        6.8387222176       -5.0075678024  MEMB      103             0.0000000000
     12776       103  PMPE      H13S           -6.3585855234        8.5209308929       -5.4998039426  MEMB      103             0.0000000000
     12777       103  PMPE      C214           -4.2766322191        8.4374325928       -4.9634673547  MEMB      103             0.0000000000
     12778       103  PMPE      H14R           -4.1912929655        9.3825465472       -5.5412199548  MEMB      103             0.0000000000
     12779       103  PMPE      H14S           -3.4146928912        7.7572932619       -5.1331505372  MEMB      103             0.0000000000
     12780       103  PMPE      C215           -4.4752968087        8.7268138289       -3.4889794264  MEMB      103             0.0000000000
     12781       103  PMPE      H15R           -4.4303837721        7.7046881802       -3.0558945852  MEMB      103             0.0000000000
     12782       103  PMPE      H15S           -5.4383431298        9.1826643746       -3.1742365707  MEMB      103             0.0000000000
     12783       103  PMPE      C216           -3.2670054153        9.5365728714       -2.8526347578  MEMB      103             0.0000000000
     12784       103  PMPE      H16R           -3.1029676659       10.5214857410       -3.3398297334  MEMB      103             0.0000000000
     12785       103  PMPE      H16S           -3.3342304109        9.6009728171       -1.7455409741  MEMB      103             0.0000000000
     12786       103  PMPE      H16T           -2.3272306094        8.9850859627       -3.0694442914  MEMB      103             0.0000000000
     12787       103  PMPE      C33            -5.4527375892        1.9764882684      -14.5224161615  MEMB      103             0.0000000000
     12788       103  PMPE      H3X            -6.5249306593        2.2675540641      -14.5204105289  MEMB      103             0.0000000000
     12789       103  PMPE      H3Y            -4.8006139005        2.8678351861      -14.4017671083  MEMB      103             0.0000000000
     12790       103  PMPE      C34            -5.0790696526        1.1851827909      -13.1662083289  MEMB      103             0.0000000000
     12791       103  PMPE      H4X            -4.0443349634        0.8186744192      -13.3374305565  MEMB      103             0.0000000000
     12792       103  PMPE      H4Y            -5.7397285974        0.3015674778      -13.0355373594  MEMB      103             0.0000000000
     12793       103  PMPE      C35            -5.1620599950        2.0942023497      -11.9356801050  MEMB      103             0.0000000000
     12794       103  PMPE      H5X            -6.1183279352        2.6579846710      -11.9806470778  MEMB      103             0.0000000000
     12795       103  PMPE      H5Y            -4.4135417205        2.9146173745      -11.9666741640  MEMB      103             0.0000000000
     12796       103  PMPE      C36            -5.0014746372        1.4496132497      -10.5292206169  MEMB      103             0.0000000000
     12797       103  PMPE      H6X            -5.1101383425        2.3892726804       -9.9465084967  MEMB      103             0.0000000000
     12798       103  PMPE      H6Y            -3.9832186533        1.0093488431      -10.4688680622  MEMB      103             0.0000000000
     12799       103  PMPE      C37            -5.9257797822        0.3322915380      -10.1255583789  MEMB      103             0.0000000000
     12800       103  PMPE      H7X            -5.8534536472       -0.5548245501      -10.7904752069  MEMB      103             0.0000000000
     12801       103  PMPE      H7Y            -6.9476170573        0.7677872341      -10.1482069185  MEMB      103             0.0000000000
     12802       103  PMPE      C38            -5.8402603316       -0.1314353415       -8.6797890561  MEMB      103             0.0000000000
     12803       103  PMPE      H8X            -4.8308230595       -0.5779762946       -8.5534633555  MEMB      103             0.0000000000
     12804       103  PMPE      H8Y            -6.5778653264       -0.9266385511       -8.4391405005  MEMB      103             0.0000000000
     12805       103  PMPE      C39            -5.9605604410        0.9473795295       -7.5833443888  MEMB      103             0.0000000000
     12806       103  PMPE      H9X            -6.9511283957        0.8455071355       -7.0906798139  MEMB      103             0.0000000000
     12807       103  PMPE      H9Y            -5.9827805681        1.9749235623       -8.0052216652  MEMB      103             0.0000000000
     12808       103  PMPE      C310           -4.8788718499        0.8811609447       -6.4949470395  MEMB      103             0.0000000000
     12809       103  PMPE      H10X           -3.8576300449        0.7313341965       -6.9059675455  MEMB      103             0.0000000000
     12810       103  PMPE      H10Y           -5.0312407319       -0.1184597640       -6.0346611308  MEMB      103             0.0000000000
     12811       103  PMPE      C311           -4.8603842586        1.9761066694       -5.4356749376  MEMB      103             0.0000000000
     12812       103  PMPE      H11X           -4.4742836220        2.8997418693       -5.9174893056  MEMB      103             0.0000000000
     12813       103  PMPE      H11Y           -4.0881675187        1.6945984438       -4.6881750068  MEMB      103             0.0000000000
     12814       103  PMPE      C312           -6.1848867089        2.1887702827       -4.6931824285  MEMB      103             0.0000000000
     12815       103  PMPE      H12X           -6.4575737085        1.2134229300       -4.2363887720  MEMB      103             0.0000000000
     12816       103  PMPE      H12Y           -6.9894310205        2.6107149429       -5.3327078890  MEMB      103             0.0000000000
     12817       103  PMPE      C313           -6.0053725784        3.1707241407       -3.5230629829  MEMB      103             0.0000000000
     12818       103  PMPE      H13X           -6.1242705776        4.2421915093       -3.7916554598  MEMB      103             0.0000000000
     12819       103  PMPE      H13Y           -4.9272751331        3.1377683643       -3.2567151820  MEMB      103             0.0000000000
     12820       103  PMPE      C314           -6.8927362534        2.7872433570       -2.3083259836  MEMB      103             0.0000000000
     12821       103  PMPE      H14X           -6.5283742240        1.7688152005       -2.0546230919  MEMB      103             0.0000000000
     12822       103  PMPE      H14Y           -7.9509324790        2.8208536767       -2.6450933663  MEMB      103             0.0000000000
     12823       103  PMPE      C315           -6.8581469154        3.6825412618       -1.0385662127  MEMB      103             0.0000000000
     12824       103  PMPE      H15X           -5.8684087928        3.9782076684       -0.6295174083  MEMB      103             0.0000000000
     12825       103  PMPE      H15Y           -7.5035153440        3.1941138461       -0.2774755208  MEMB      103             0.0000000000
     12826       103  PMPE      C316           -7.8164701512        4.9246678027       -1.1965271299  MEMB      103             0.0000000000
     12827       103  PMPE      H16X           -7.9815400961        5.4650865548       -0.2399609428  MEMB      103             0.0000000000
     12828       103  PMPE      H16Y           -8.7661092968        4.5254125447       -1.6125821429  MEMB      103             0.0000000000
     12829       103  PMPE      H16Z           -7.3169892198        5.6001877280       -1.9235157185  MEMB      103             0.0000000000
     12830       104  PMPE      N               5.3719399543       -0.3903699712      -20.5003207057  MEMB      104             0.0000000000
     12831       104  PMPE      HN1             5.1768690922       -1.2984636536      -20.0324390383  MEMB      104             0.0000000000
     12832       104  PMPE      HN2             5.0934097951        0.3539200706      -19.8294605373  MEMB      104             0.0000000000
     12833       104  PMPE      HN3             4.7459651850       -0.3549595038      -21.3300808470  MEMB      104             0.0000000000
     12834       104  PMPE      C12             6.8628768148       -0.2404164500      -20.9017811990  MEMB      104             0.0000000000
     12835       104  PMPE      H12A            6.9075181348        0.5575023512      -21.6735672843  MEMB      104             0.0000000000
     12836       104  PMPE      H12B            7.0555473645       -1.0867123048      -21.5953101478  MEMB      104             0.0000000000
     12837       104  PMPE      C11             7.7906968095       -0.0494361024      -19.6650489017  MEMB      104             0.0000000000
     12838       104  PMPE      H11A            7.5402978875        0.8914898798      -19.1299975982  MEMB      104             0.0000000000
     12839       104  PMPE      H11B            8.7690580198       -0.0894807509      -20.1899552888  MEMB      104             0.0000000000
     12840       104  PMPE      P               9.0472949782       -1.7008523689      -18.2032027300  MEMB      104             0.0000000000
     12841       104  PMPE      O13             9.8463546346       -0.5801288626      -17.5570244078  MEMB      104             0.0000000000
     12842       104  PMPE      O14             9.6981915959       -2.3864197781      -19.3304305696  MEMB      104             0.0000000000
     12843       104  PMPE      O11             8.6625442311       -2.7331361428      -17.0665563299  MEMB      104             0.0000000000
     12844       104  PMPE      O12             7.6125444974       -1.1501584828      -18.7756351577  MEMB      104             0.0000000000
     12845       104  PMPE      C1              7.5290314622       -2.5906536002      -16.2850851834  MEMB      104             0.0000000000
     12846       104  PMPE      HA              7.0289608966       -3.5810387605      -16.3432894356  MEMB      104             0.0000000000
     12847       104  PMPE      HB              6.7588786109       -1.9683938081      -16.7890478264  MEMB      104             0.0000000000
     12848       104  PMPE      C2              7.8518794272       -2.2003328526      -14.8204668762  MEMB      104             0.0000000000
     12849       104  PMPE      HS              6.9286807773       -2.2947583769      -14.2096399638  MEMB      104             0.0000000000
     12850       104  PMPE      O21             8.3523223873       -0.8651958917      -14.8624425341  MEMB      104             0.0000000000
     12851       104  PMPE      C21             7.4834991762        0.1346319670      -15.0268864726  MEMB      104             0.0000000000
     12852       104  PMPE      O22             6.2806486087        0.0150435704      -14.9891216228  MEMB      104             0.0000000000
     12853       104  PMPE      C22             8.2245989650        1.5213812384      -15.1996099089  MEMB      104             0.0000000000
     12854       104  PMPE      H2R             7.4300404260        2.2414164132      -15.4903802977  MEMB      104             0.0000000000
     12855       104  PMPE      H2S             9.0317701719        1.5155506672      -15.9629982672  MEMB      104             0.0000000000
     12856       104  PMPE      C3              8.9096153950       -3.2226452390      -14.2805496540  MEMB      104             0.0000000000
     12857       104  PMPE      HX              9.6842851407       -3.1546949638      -15.0740170327  MEMB      104             0.0000000000
     12858       104  PMPE      HY              8.2780025964       -4.1192469952      -14.4580089828  MEMB      104             0.0000000000
     12859       104  PMPE      O31             9.4135616360       -3.0942430324      -12.9242516818  MEMB      104             0.0000000000
     12860       104  PMPE      C31            10.2043121902       -4.0288814912      -12.5049167366  MEMB      104             0.0000000000
     12861       104  PMPE      O32            10.5678962046       -4.9890440106      -13.1326957146  MEMB      104             0.0000000000
     12862       104  PMPE      C32            10.7464434554       -3.6006824035      -11.1073176240  MEMB      104             0.0000000000
     12863       104  PMPE      H2X            10.0059671901       -4.0338450772      -10.4013535798  MEMB      104             0.0000000000
     12864       104  PMPE      H2Y            10.6106590388       -2.4981308429      -11.0910793032  MEMB      104             0.0000000000
     12865       104  PMPE      C23             8.8251783684        2.0549414604      -13.9153693077  MEMB      104             0.0000000000
     12866       104  PMPE      H3R             8.0987412137        1.8082553074      -13.1117799172  MEMB      104             0.0000000000
     12867       104  PMPE      H3S             9.0055639520        3.1506977801      -13.9485384758  MEMB      104             0.0000000000
     12868       104  PMPE      C24            10.2135581818        1.4071428309      -13.5935588526  MEMB      104             0.0000000000
     12869       104  PMPE      H4R            10.8558927973        1.6504487176      -14.4667882514  MEMB      104             0.0000000000
     12870       104  PMPE      H4S            10.1583278816        0.2998951152      -13.5209417363  MEMB      104             0.0000000000
     12871       104  PMPE      C25            10.8180914072        1.9450309992      -12.2643790145  MEMB      104             0.0000000000
     12872       104  PMPE      H5R            11.1337120807        2.9934640672      -12.4527735011  MEMB      104             0.0000000000
     12873       104  PMPE      H5S            11.7752042944        1.4082718842      -12.0907543797  MEMB      104             0.0000000000
     12874       104  PMPE      C26             9.9905924303        1.9211326087      -11.0058012414  MEMB      104             0.0000000000
     12875       104  PMPE      H6R             9.1759011677        2.6599783044      -11.1629840371  MEMB      104             0.0000000000
     12876       104  PMPE      H6S            10.5658325997        2.4468164197      -10.2139193053  MEMB      104             0.0000000000
     12877       104  PMPE      C27             9.3069497182        0.6507938512      -10.5628334629  MEMB      104             0.0000000000
     12878       104  PMPE      H7R            10.1061198404       -0.1158647381      -10.4740488400  MEMB      104             0.0000000000
     12879       104  PMPE      H7S             8.7338428760        0.4374890940      -11.4903953633  MEMB      104             0.0000000000
     12880       104  PMPE      C28             8.3818578770        0.5282939010       -9.4105682867  MEMB      104             0.0000000000
     12881       104  PMPE      H8R             7.5624941541        1.2764571372       -9.4672772451  MEMB      104             0.0000000000
     12882       104  PMPE      H8S             9.0341232749        0.5267536149       -8.5111971246  MEMB      104             0.0000000000
     12883       104  PMPE      C29             7.6977854352       -0.8419085055       -9.4077308245  MEMB      104             0.0000000000
     12884       104  PMPE      H9R             8.4199503772       -1.6834354356       -9.4757846014  MEMB      104             0.0000000000
     12885       104  PMPE      C217            6.3793421403       -0.9226688873      -10.1664210436  MEMB      104             0.0000000000
     12886       104  PMPE      H17R            6.2473976734       -1.7818002118      -10.8124656934  MEMB      104             0.0000000000
     12887       104  PMPE      H17S            5.9661672211       -0.0081633098      -10.5736744000  MEMB      104             0.0000000000
     12888       104  PMPE      C210            6.3584127923       -1.0559595458       -8.6518639365  MEMB      104             0.0000000000
     12889       104  PMPE      H10R            6.2201466149       -2.0701115803       -8.2197770635  MEMB      104             0.0000000000
     12890       104  PMPE      C211            5.8001541007        0.1006176268       -7.9048832228  MEMB      104             0.0000000000
     12891       104  PMPE      H11R            4.7068337411       -0.0470371952       -7.7738509588  MEMB      104             0.0000000000
     12892       104  PMPE      H11S            5.9028953257        1.0395416045       -8.4898502842  MEMB      104             0.0000000000
     12893       104  PMPE      C212            6.5198104388        0.2492251215       -6.5981585276  MEMB      104             0.0000000000
     12894       104  PMPE      H12R            7.5304596209        0.6977415649       -6.7065198736  MEMB      104             0.0000000000
     12895       104  PMPE      H12S            6.5933044322       -0.7662867801       -6.1535739526  MEMB      104             0.0000000000
     12896       104  PMPE      C213            5.7860389182        1.1960666406       -5.6296449395  MEMB      104             0.0000000000
     12897       104  PMPE      H13R            4.7396592625        0.8398018218       -5.5179048842  MEMB      104             0.0000000000
     12898       104  PMPE      H13S            5.6788407424        2.1816352239       -6.1311275023  MEMB      104             0.0000000000
     12899       104  PMPE      C214            6.4398631756        1.5273403886       -4.3253960734  MEMB      104             0.0000000000
     12900       104  PMPE      H14R            7.4928338303        1.6430915931       -4.6603224113  MEMB      104             0.0000000000
     12901       104  PMPE      H14S            6.3315783921        0.6549042166       -3.6460945683  MEMB      104             0.0000000000
     12902       104  PMPE      C215            5.9210818432        2.8423419623       -3.6965674147  MEMB      104             0.0000000000
     12903       104  PMPE      H15R            4.8188291357        2.8445571273       -3.5574434675  MEMB      104             0.0000000000
     12904       104  PMPE      H15S            6.1078587715        3.8165162489       -4.1969880361  MEMB      104             0.0000000000
     12905       104  PMPE      C216            6.5573415271        3.0828239938       -2.3516380353  MEMB      104             0.0000000000
     12906       104  PMPE      H16R            7.6045343219        3.4400598924       -2.4520905664  MEMB      104             0.0000000000
     12907       104  PMPE      H16S            5.9606963208        3.8265791541       -1.7814072685  MEMB      104             0.0000000000
     12908       104  PMPE      H16T            6.5466230157        2.1636915814       -1.7276171400  MEMB      104             0.0000000000
     12909       104  PMPE      C33            12.0440012027       -4.2831435024      -10.6500721778  MEMB      104             0.0000000000
     12910       104  PMPE      H3X            12.4798951116       -4.9139600377      -11.4540546027  MEMB      104             0.0000000000
     12911       104  PMPE      H3Y            12.0003291915       -4.8791009292       -9.7134567270  MEMB      104             0.0000000000
     12912       104  PMPE      C34            13.1836028834       -3.2422137801      -10.3298839073  MEMB      104             0.0000000000
     12913       104  PMPE      H4X            13.4162158639       -2.5662193092      -11.1803210544  MEMB      104             0.0000000000
     12914       104  PMPE      H4Y            14.1214953489       -3.8330891992      -10.2554131133  MEMB      104             0.0000000000
     12915       104  PMPE      C35            13.1553262008       -2.4498845219       -8.9972036402  MEMB      104             0.0000000000
     12916       104  PMPE      H5X            13.1925388173       -3.1560080065       -8.1402759346  MEMB      104             0.0000000000
     12917       104  PMPE      H5Y            12.2200131865       -1.8507437674       -8.9739561887  MEMB      104             0.0000000000
     12918       104  PMPE      C36            14.3537865187       -1.5037691523       -8.8910844102  MEMB      104             0.0000000000
     12919       104  PMPE      H6X            14.1948697458       -0.4593041086       -9.2348280925  MEMB      104             0.0000000000
     12920       104  PMPE      H6Y            15.1982653021       -1.9692342879       -9.4429166349  MEMB      104             0.0000000000
     12921       104  PMPE      C37            14.8678280592       -1.3604016401       -7.4447754847  MEMB      104             0.0000000000
     12922       104  PMPE      H7X            15.9525348150       -1.1542777021       -7.3213026642  MEMB      104             0.0000000000
     12923       104  PMPE      H7Y            14.7231365854       -2.3205581443       -6.9048820786  MEMB      104             0.0000000000
     12924       104  PMPE      C38            14.1694937267       -0.2757136236       -6.5978537920  MEMB      104             0.0000000000
     12925       104  PMPE      H8X            14.0266154669        0.5970537895       -7.2702993301  MEMB      104             0.0000000000
     12926       104  PMPE      H8Y            14.9573564230        0.0497587871       -5.8853493809  MEMB      104             0.0000000000
     12927       104  PMPE      C39            12.8313563564       -0.6534721456       -5.8482653239  MEMB      104             0.0000000000
     12928       104  PMPE      H9X            13.1261342885       -0.6496439421       -4.7770918079  MEMB      104             0.0000000000
     12929       104  PMPE      H9Y            12.5539336499       -1.6972602562       -6.1087727436  MEMB      104             0.0000000000
     12930       104  PMPE      C310           11.7019065796        0.3414944792       -6.1908152243  MEMB      104             0.0000000000
     12931       104  PMPE      H10X           11.7216579401        0.6454635788       -7.2592410706  MEMB      104             0.0000000000
     12932       104  PMPE      H10Y           11.8519720183        1.2731181308       -5.6044032379  MEMB      104             0.0000000000
     12933       104  PMPE      C311           10.3297753937       -0.2105389860       -5.7530163911  MEMB      104             0.0000000000
     12934       104  PMPE      H11X            9.9608619661       -0.8531311871       -6.5808449137  MEMB      104             0.0000000000
     12935       104  PMPE      H11Y            9.5384116254        0.5300341405       -5.5088532269  MEMB      104             0.0000000000
     12936       104  PMPE      C312           10.3498914122       -1.2794006508       -4.6225740605  MEMB      104             0.0000000000
     12937       104  PMPE      H12X           10.7631545707       -0.7069438891       -3.7647704228  MEMB      104             0.0000000000
     12938       104  PMPE      H12Y           10.8806150420       -2.2311808832       -4.8388323704  MEMB      104             0.0000000000
     12939       104  PMPE      C313            8.8803642612       -1.6882546927       -4.3630304336  MEMB      104             0.0000000000
     12940       104  PMPE      H13X            8.3587503545       -1.8042911734       -5.3370814829  MEMB      104             0.0000000000
     12941       104  PMPE      H13Y            8.1857805367       -0.9552901051       -3.8997411655  MEMB      104             0.0000000000
     12942       104  PMPE      C314            8.7461924063       -2.7964295334       -3.3572508385  MEMB      104             0.0000000000
     12943       104  PMPE      H14X            9.0812558775       -3.7360741676       -3.8462509084  MEMB      104             0.0000000000
     12944       104  PMPE      H14Y            7.6880149542       -3.0005049194       -3.0871870668  MEMB      104             0.0000000000
     12945       104  PMPE      C315            9.4905955132       -2.6437350870       -2.0586831124  MEMB      104             0.0000000000
     12946       104  PMPE      H15X            9.0569922587       -1.8315873359       -1.4368108713  MEMB      104             0.0000000000
     12947       104  PMPE      H15Y           10.5773523864       -2.4619995940       -2.2009957543  MEMB      104             0.0000000000
     12948       104  PMPE      C316            9.4883283199       -3.9008933800       -1.1120852146  MEMB      104             0.0000000000
     12949       104  PMPE      H16X           10.0460663771       -3.8832153239       -0.1513909680  MEMB      104             0.0000000000
     12950       104  PMPE      H16Y            9.7319519426       -4.8355281037       -1.6611093334  MEMB      104             0.0000000000
     12951       104  PMPE      H16Z            8.4323063227       -4.0060981904       -0.7833459061  MEMB      104             0.0000000000
     12952       105  QMPE      N              -7.5010380922       -4.5900235461      -21.0575918421  MEMB      105             0.0000000000
     12953       105  QMPE      HN1            -7.3878075910       -5.6154169447      -20.9258831392  MEMB      105             0.0000000000
     12954       105  QMPE      HN2            -7.0100565457       -4.3012553654      -21.9277355664  MEMB      105             0.0000000000
     12955       105  QMPE      HN3            -7.2200741929       -4.0304988398      -20.2271753705  MEMB      105             0.0000000000
     12956       105  QMPE      C12            -8.9346014444       -4.1181487160      -21.3079030601  MEMB      105             0.0000000000
     12957       105  QMPE      H12A           -9.3741299036       -4.7245122087      -22.1285485358  MEMB      105             0.0000000000
     12958       105  QMPE      H12B           -8.8267907674       -3.0627406648      -21.6377693882  MEMB      105             0.0000000000
     12959       105  QMPE      C11            -9.8786084187       -4.3929257621      -20.1580726339  MEMB      105             0.0000000000
     12960       105  QMPE      H11A           -9.5815529669       -5.4160538965      -19.8429730128  MEMB      105             0.0000000000
     12961       105  QMPE      H11B          -10.9598982060       -4.3635527181      -20.4115891597  MEMB      105             0.0000000000
     12962       105  QMPE      P              -8.8536825418       -3.4723504131      -17.8674039572  MEMB      105             0.0000000000
     12963       105  QMPE      O13            -7.5030305782       -3.2264230874      -18.4926700380  MEMB      105             0.0000000000
     12964       105  QMPE      O14            -9.0737539192       -4.5940615478      -16.9195790716  MEMB      105             0.0000000000
     12965       105  QMPE      O11            -9.2136750274       -2.1975848849      -17.1299673740  MEMB      105             0.0000000000
     12966       105  QMPE      O12            -9.8251048823       -3.4952526371      -19.0668120230  MEMB      105             0.0000000000
     12967       105  QMPE      C1            -10.4954587128       -1.6543906354      -17.0916079822  MEMB      105             0.0000000000
     12968       105  QMPE      HA            -11.2662565367       -2.4541635273      -17.0680484908  MEMB      105             0.0000000000
     12969       105  QMPE      HB            -10.5865793512       -1.0340620060      -18.0087831746  MEMB      105             0.0000000000
     12970       105  QMPE      C2            -10.7502051079       -0.7289184022      -15.8971599999  MEMB      105             0.0000000000
     12971       105  QMPE      HS            -11.6191163997       -0.0951405057      -16.1757991195  MEMB      105             0.0000000000
     12972       105  QMPE      O21            -9.6315171565        0.1889171456      -15.6244997217  MEMB      105             0.0000000000
     12973       105  QMPE      C21            -9.8377865641        1.1407961068      -14.6432112049  MEMB      105             0.0000000000
     12974       105  QMPE      O22           -10.9250871296        1.5487038730      -14.2430001988  MEMB      105             0.0000000000
     12975       105  QMPE      C22            -8.4862714404        1.5267060016      -14.1424662912  MEMB      105             0.0000000000
     12976       105  QMPE      H2R            -8.0284886571        2.2803718325      -14.8182944751  MEMB      105             0.0000000000
     12977       105  QMPE      H2S            -7.7397499033        0.7042170365      -14.1192701096  MEMB      105             0.0000000000
     12978       105  QMPE      C3            -11.0736436331       -1.5554583785      -14.6606121741  MEMB      105             0.0000000000
     12979       105  QMPE      HX            -12.0449536609       -2.0799333081      -14.7863248320  MEMB      105             0.0000000000
     12980       105  QMPE      HY            -11.2608712079       -0.9714557548      -13.7342172509  MEMB      105             0.0000000000
     12981       105  QMPE      O31            -9.9356460876       -2.4081025120      -14.4444142334  MEMB      105             0.0000000000
     12982       105  QMPE      C31           -10.1484745529       -3.2152200153      -13.4747687850  MEMB      105             0.0000000000
     12983       105  QMPE      O32           -11.0854879386       -3.2064429910      -12.6320881885  MEMB      105             0.0000000000
     12984       105  QMPE      C32            -9.0314244515       -4.2390973387      -13.4619340643  MEMB      105             0.0000000000
     12985       105  QMPE      H2X            -9.4055756411       -5.2835451824      -13.5207622759  MEMB      105             0.0000000000
     12986       105  QMPE      H2Y            -8.3473699459       -4.1385144564      -14.3315739801  MEMB      105             0.0000000000
     12987       105  QMPE      C23            -8.5057911382        2.0483306460      -12.6556104506  MEMB      105             0.0000000000
     12988       105  QMPE      H3R            -9.2316045510        1.5361330102      -11.9884001045  MEMB      105             0.0000000000
     12989       105  QMPE      H3S            -8.9055984716        3.0844557269      -12.6859413133  MEMB      105             0.0000000000
     12990       105  QMPE      C24            -7.1350710469        1.9403553373      -12.0649195260  MEMB      105             0.0000000000
     12991       105  QMPE      H4R            -6.4827545053        2.3660839640      -12.8571055791  MEMB      105             0.0000000000
     12992       105  QMPE      H4S            -6.8378123545        0.8710690704      -12.0140763428  MEMB      105             0.0000000000
     12993       105  QMPE      C25            -7.0234154987        2.3536024853      -10.6147152642  MEMB      105             0.0000000000
     12994       105  QMPE      H5R            -7.0509188447        3.4639044487      -10.6428938073  MEMB      105             0.0000000000
     12995       105  QMPE      H5S            -6.0512318320        1.9455010106      -10.2645252772  MEMB      105             0.0000000000
     12996       105  QMPE      C26            -8.0870088389        1.7555990185       -9.6824880039  MEMB      105             0.0000000000
     12997       105  QMPE      H6R            -7.7579062595        1.5639871576       -8.6387938467  MEMB      105             0.0000000000
     12998       105  QMPE      H6S            -8.2586035491        0.7175352652      -10.0392793150  MEMB      105             0.0000000000
     12999       105  QMPE      C27            -9.3408543897        2.5800349905       -9.6285205188  MEMB      105             0.0000000000
     13000       105  QMPE      H7R            -9.8875268789        2.8171285716      -10.5662073237  MEMB      105             0.0000000000
     13001       105  QMPE      H7S            -8.9828249577        3.5919277786       -9.3417977615  MEMB      105             0.0000000000
     13002       105  QMPE      C28           -10.3131202118        2.2320868554       -8.4938915749  MEMB      105             0.0000000000
     13003       105  QMPE      H8R           -11.1435540773        2.9537309389       -8.3391972601  MEMB      105             0.0000000000
     13004       105  QMPE      H8S            -9.6306222901        2.2881692260       -7.6190354805  MEMB      105             0.0000000000
     13005       105  QMPE      C29           -11.0341402163        0.9177220800       -8.8188832539  MEMB      105             0.0000000000
     13006       105  QMPE      H9R           -10.4636224269        0.2776944161       -9.5254210661  MEMB      105             0.0000000000
     13007       105  QMPE      C217          -12.4611322547        1.1001127446       -9.2978260092  MEMB      105             0.0000000000
     13008       105  QMPE      H17R          -12.9297887692        2.0607284888       -9.1232749256  MEMB      105             0.0000000000
     13009       105  QMPE      H17S          -12.7386193947        0.3747804071      -10.0526651879  MEMB      105             0.0000000000
     13010       105  QMPE      C210          -12.1460729715        0.3661641861       -7.9835102530  MEMB      105             0.0000000000
     13011       105  QMPE      H10R          -12.2226733220       -0.7276899997       -8.1622172155  MEMB      105             0.0000000000
     13012       105  QMPE      C211          -12.7678357743        1.1594432647       -6.7930078920  MEMB      105             0.0000000000
     13013       105  QMPE      H11R          -13.0332890130        2.2284712954       -6.9380404910  MEMB      105             0.0000000000
     13014       105  QMPE      H11S          -13.7094978854        0.6168646663       -6.5623523460  MEMB      105             0.0000000000
     13015       105  QMPE      C212          -11.8119088019        0.9666502071       -5.6690586465  MEMB      105             0.0000000000
     13016       105  QMPE      H12R          -10.8218007168        1.3621034528       -5.9815065249  MEMB      105             0.0000000000
     13017       105  QMPE      H12S          -11.7657487313       -0.0985408703       -5.3567156687  MEMB      105             0.0000000000
     13018       105  QMPE      C213          -12.2731421980        1.7752749449       -4.4430407003  MEMB      105             0.0000000000
     13019       105  QMPE      H13R          -13.3672504633        1.6351751514       -4.3102982665  MEMB      105             0.0000000000
     13020       105  QMPE      H13S          -12.2264947671        2.8479371161       -4.7285943658  MEMB      105             0.0000000000
     13021       105  QMPE      C214          -11.3858333360        1.5994122500       -3.2199713323  MEMB      105             0.0000000000
     13022       105  QMPE      H14R          -10.3374508614        1.8555948384       -3.4837632218  MEMB      105             0.0000000000
     13023       105  QMPE      H14S          -11.3746705272        0.5227646436       -2.9460615288  MEMB      105             0.0000000000
     13024       105  QMPE      C215          -11.7482550556        2.5001041423       -2.1261107744  MEMB      105             0.0000000000
     13025       105  QMPE      H15R          -11.3152940332        2.1978178093       -1.1486195129  MEMB      105             0.0000000000
     13026       105  QMPE      H15S          -12.8505771650        2.4863450174       -1.9882070267  MEMB      105             0.0000000000
     13027       105  QMPE      C216          -11.1823546424        3.9563727357       -2.2448310629  MEMB      105             0.0000000000
     13028       105  QMPE      H16R          -11.7225937484        4.4579526600       -3.0760231483  MEMB      105             0.0000000000
     13029       105  QMPE      H16S          -10.0889837395        3.9154210708       -2.4376632013  MEMB      105             0.0000000000
     13030       105  QMPE      H16T          -11.4465695007        4.5165137086       -1.3224673393  MEMB      105             0.0000000000
     13031       105  QMPE      C33            -8.1523475114       -4.0742622218      -12.1746004049  MEMB      105             0.0000000000
     13032       105  QMPE      H3X            -7.3406388098       -4.8255982310      -12.2792141671  MEMB      105             0.0000000000
     13033       105  QMPE      H3Y            -8.8303369238       -4.5470653128      -11.4322333190  MEMB      105             0.0000000000
     13034       105  QMPE      C34            -7.7930514955       -2.6348057022      -11.8602712360  MEMB      105             0.0000000000
     13035       105  QMPE      H4X            -8.7195684519       -2.0263261401      -11.7851711809  MEMB      105             0.0000000000
     13036       105  QMPE      H4Y            -7.2118842979       -2.4397794049      -12.7868403299  MEMB      105             0.0000000000
     13037       105  QMPE      C35            -6.9095496818       -2.4640327164      -10.6487620526  MEMB      105             0.0000000000
     13038       105  QMPE      H5X            -6.3835018195       -1.4855079338      -10.6579314005  MEMB      105             0.0000000000
     13039       105  QMPE      H5Y            -6.0866658688       -3.1966216339      -10.7919281629  MEMB      105             0.0000000000
     13040       105  QMPE      C36            -7.6291863328       -2.5917194548       -9.3186329350  MEMB      105             0.0000000000
     13041       105  QMPE      H6X            -7.7013949580       -3.6854342746       -9.1372625685  MEMB      105             0.0000000000
     13042       105  QMPE      H6Y            -8.5707279575       -2.0027255393       -9.3487411862  MEMB      105             0.0000000000
     13043       105  QMPE      C37            -6.7463453773       -2.0380194185       -8.1707740941  MEMB      105             0.0000000000
     13044       105  QMPE      H7X            -5.8479578836       -2.6323108814       -7.8986737947  MEMB      105             0.0000000000
     13045       105  QMPE      H7Y            -6.4194570254       -1.0413717626       -8.5370505115  MEMB      105             0.0000000000
     13046       105  QMPE      C38            -7.4602247132       -1.8028548718       -6.8112597387  MEMB      105             0.0000000000
     13047       105  QMPE      H8X            -8.4412648104       -1.4048115955       -7.1480720678  MEMB      105             0.0000000000
     13048       105  QMPE      H8Y            -7.6466138430       -2.7926830208       -6.3424097491  MEMB      105             0.0000000000
     13049       105  QMPE      C39            -6.6332716233       -0.8156274301       -5.8944012543  MEMB      105             0.0000000000
     13050       105  QMPE      H9X            -6.5222238422        0.1986213257       -6.3340474631  MEMB      105             0.0000000000
     13051       105  QMPE      H9Y            -5.6331362676       -1.2309083273       -5.6462240282  MEMB      105             0.0000000000
     13052       105  QMPE      C310           -7.2123875896       -0.5301216482       -4.4843734978  MEMB      105             0.0000000000
     13053       105  QMPE      H10X           -8.2217146537       -0.0946258772       -4.6453810935  MEMB      105             0.0000000000
     13054       105  QMPE      H10Y           -6.5851101260        0.2385889706       -3.9844453714  MEMB      105             0.0000000000
     13055       105  QMPE      C311           -7.2201247131       -1.6892055018       -3.4567578852  MEMB      105             0.0000000000
     13056       105  QMPE      H11X           -6.1686640101       -1.9960486456       -3.2707512954  MEMB      105             0.0000000000
     13057       105  QMPE      H11Y           -7.7827601554       -2.5438723837       -3.8895469103  MEMB      105             0.0000000000
     13058       105  QMPE      C312           -7.7050814118       -1.3773453913       -1.9859454308  MEMB      105             0.0000000000
     13059       105  QMPE      H12X           -7.5595601589       -2.2877348142       -1.3659976711  MEMB      105             0.0000000000
     13060       105  QMPE      H12Y           -8.7867626799       -1.1413673918       -1.8932038771  MEMB      105             0.0000000000
     13061       105  QMPE      C313           -6.8211890423       -0.3070016409       -1.1726252202  MEMB      105             0.0000000000
     13062       105  QMPE      H13X           -5.7666357959       -0.2280542319       -1.5132204781  MEMB      105             0.0000000000
     13063       105  QMPE      H13Y           -7.2570672690        0.6315859582       -1.5768338637  MEMB      105             0.0000000000
     13064       105  QMPE      C314           -7.0090678661       -0.3870602650        0.3759646842  MEMB      105             0.0000000000
     13065       105  QMPE      H14X           -8.0702820390       -0.4549230478        0.6977415473  MEMB      105             0.0000000000
     13066       105  QMPE      H14Y           -6.6702096142        0.6272583759        0.6770516038  MEMB      105             0.0000000000
     13067       105  QMPE      C315           -6.0151364232       -1.4078261938        1.0570468054  MEMB      105             0.0000000000
     13068       105  QMPE      H15X           -6.1557903853       -2.4746277092        0.7805142018  MEMB      105             0.0000000000
     13069       105  QMPE      H15Y           -4.9620449560       -1.1886859379        0.7790237649  MEMB      105             0.0000000000
     13070       105  QMPE      H15Z           -5.9144629779       -1.2992604324        2.1581373356  MEMB      105             0.0000000000
     13071       106  QMPE      N               7.2441385032       -9.6612379502      -19.4842933922  MEMB      106             0.0000000000
     13072       106  QMPE      HN1             7.0282618936       -8.6470156734      -19.4046041550  MEMB      106             0.0000000000
     13073       106  QMPE      HN2             7.4370185269      -10.1387074445      -18.5807336368  MEMB      106             0.0000000000
     13074       106  QMPE      HN3             7.9923143593       -9.8281857700      -20.1871173899  MEMB      106             0.0000000000
     13075       106  QMPE      C12             6.0437839745      -10.2109569727      -20.2787025624  MEMB      106             0.0000000000
     13076       106  QMPE      H12A            6.1904861055      -11.3025544287      -20.4243542667  MEMB      106             0.0000000000
     13077       106  QMPE      H12B            6.0392630372       -9.7147777186      -21.2727381837  MEMB      106             0.0000000000
     13078       106  QMPE      C11             4.7342383847      -10.0357847295      -19.4037708110  MEMB      106             0.0000000000
     13079       106  QMPE      H11A            5.0840456078      -10.2363577471      -18.3685286684  MEMB      106             0.0000000000
     13080       106  QMPE      H11B            4.0134823483      -10.8257122099      -19.7051776805  MEMB      106             0.0000000000
     13081       106  QMPE      P               4.4188531343       -7.5419213307      -18.5940432303  MEMB      106             0.0000000000
     13082       106  QMPE      O13             3.4900037457       -6.4054068848      -18.8178671500  MEMB      106             0.0000000000
     13083       106  QMPE      O14             5.8735312096       -7.2290367959      -18.6652019522  MEMB      106             0.0000000000
     13084       106  QMPE      O11             4.0320288576       -8.1435331015      -17.1309975594  MEMB      106             0.0000000000
     13085       106  QMPE      O12             4.1262483535       -8.7069902351      -19.6251233409  MEMB      106             0.0000000000
     13086       106  QMPE      C1              2.6990848695       -8.4624437222      -16.7884312099  MEMB      106             0.0000000000
     13087       106  QMPE      HA              2.2459354614       -9.2633732480      -17.4109170897  MEMB      106             0.0000000000
     13088       106  QMPE      HB              2.1472051337       -7.5061359687      -16.9118224822  MEMB      106             0.0000000000
     13089       106  QMPE      C2              2.6373950598       -8.8993065191      -15.2990307157  MEMB      106             0.0000000000
     13090       106  QMPE      HS              1.5794052597       -8.8471766661      -14.9639767289  MEMB      106             0.0000000000
     13091       106  QMPE      O21             3.4547562029       -8.1711124188      -14.3257193875  MEMB      106             0.0000000000
     13092       106  QMPE      C21             3.0655429027       -6.8852737596      -14.1561588776  MEMB      106             0.0000000000
     13093       106  QMPE      O22             2.0521096031       -6.4059658017      -14.5764937916  MEMB      106             0.0000000000
     13094       106  QMPE      C22             4.0221278046       -6.2975094236      -13.1197105666  MEMB      106             0.0000000000
     13095       106  QMPE      H2R             4.4077057994       -5.3012692143      -13.4249253002  MEMB      106             0.0000000000
     13096       106  QMPE      H2S             4.8519643264       -6.9876475560      -12.8562679847  MEMB      106             0.0000000000
     13097       106  QMPE      C3              3.1334564061      -10.4646542994      -15.2020710407  MEMB      106             0.0000000000
     13098       106  QMPE      HX              4.2271326137      -10.3859703641      -15.3809631531  MEMB      106             0.0000000000
     13099       106  QMPE      HY              2.5255070404      -11.0284443415      -15.9415706886  MEMB      106             0.0000000000
     13100       106  QMPE      O31             2.9527319176      -10.7652253595      -13.7956864691  MEMB      106             0.0000000000
     13101       106  QMPE      C31             1.6852611175      -10.9282214766      -13.3734287081  MEMB      106             0.0000000000
     13102       106  QMPE      O32             0.6463597466      -10.8817775654      -13.9885317518  MEMB      106             0.0000000000
     13103       106  QMPE      C32             1.7311119559      -11.1565489692      -11.8525097515  MEMB      106             0.0000000000
     13104       106  QMPE      H2X             0.8605145822      -11.7937960541      -11.5873731715  MEMB      106             0.0000000000
     13105       106  QMPE      H2Y             2.6345056171      -11.7652284465      -11.6340830896  MEMB      106             0.0000000000
     13106       106  QMPE      C23             3.1754046353       -6.0790716657      -11.8000050741  MEMB      106             0.0000000000
     13107       106  QMPE      H3R             2.6207652994       -7.0160091538      -11.5789975174  MEMB      106             0.0000000000
     13108       106  QMPE      H3S             2.3782938439       -5.3308305033      -11.9976668418  MEMB      106             0.0000000000
     13109       106  QMPE      C24             4.0901768076       -5.5286354825      -10.6315438466  MEMB      106             0.0000000000
     13110       106  QMPE      H4R             4.7141158385       -4.7410162505      -11.1055448912  MEMB      106             0.0000000000
     13111       106  QMPE      H4S             4.8855702610       -6.2302087328      -10.3006880355  MEMB      106             0.0000000000
     13112       106  QMPE      C25             3.3002568740       -5.1460633098       -9.3448622029  MEMB      106             0.0000000000
     13113       106  QMPE      H5R             2.5114326649       -5.8751217728       -9.0610465084  MEMB      106             0.0000000000
     13114       106  QMPE      H5S             2.8547567088       -4.1678456355       -9.6258259727  MEMB      106             0.0000000000
     13115       106  QMPE      C26             4.2978321962       -4.9579436753       -8.2470485828  MEMB      106             0.0000000000
     13116       106  QMPE      H6R             5.0165936309       -4.1801473068       -8.5828096149  MEMB      106             0.0000000000
     13117       106  QMPE      H6S             4.7776534782       -5.9396716451       -8.0462933784  MEMB      106             0.0000000000
     13118       106  QMPE      C27             3.6050805915       -4.4580165528       -6.9853490700  MEMB      106             0.0000000000
     13119       106  QMPE      H7R             3.1961746778       -5.4315025429       -6.6397451977  MEMB      106             0.0000000000
     13120       106  QMPE      H7S             2.7857753211       -3.7987305281       -7.3436815062  MEMB      106             0.0000000000
     13121       106  QMPE      C28             4.4678823627       -3.8115831236       -6.0645305406  MEMB      106             0.0000000000
     13122       106  QMPE      H8R             5.4015226930       -4.3961413566       -5.9198646075  MEMB      106             0.0000000000
     13123       106  QMPE      H8S             3.8980470569       -3.6234840788       -5.1295293476  MEMB      106             0.0000000000
     13124       106  QMPE      C29             4.8835017848       -2.4445173681       -6.5932059590  MEMB      106             0.0000000000
     13125       106  QMPE      H9R             4.0578863242       -1.9774433887       -7.1715849656  MEMB      106             0.0000000000
     13126       106  QMPE      C217            6.2325764411       -2.3954649325       -7.1887323375  MEMB      106             0.0000000000
     13127       106  QMPE      H17R            6.8620778375       -3.2600279200       -7.0180060949  MEMB      106             0.0000000000
     13128       106  QMPE      H17S            6.2385705111       -1.8217859664       -8.1072891271  MEMB      106             0.0000000000
     13129       106  QMPE      C210            5.9287898322       -1.6169976302       -5.9335409438  MEMB      106             0.0000000000
     13130       106  QMPE      H10R            5.7993593921       -0.5245337586       -6.0887545976  MEMB      106             0.0000000000
     13131       106  QMPE      C211            6.4980819683       -2.1833312673       -4.6309483669  MEMB      106             0.0000000000
     13132       106  QMPE      H11R            6.7914101509       -3.2479556344       -4.7528281331  MEMB      106             0.0000000000
     13133       106  QMPE      H11S            7.4343147625       -1.5863930089       -4.5928147106  MEMB      106             0.0000000000
     13134       106  QMPE      C212            5.6715338661       -1.8587751264       -3.3929141422  MEMB      106             0.0000000000
     13135       106  QMPE      H12R            4.6701582740       -2.3399768420       -3.3892677861  MEMB      106             0.0000000000
     13136       106  QMPE      H12S            5.4822795224       -0.7810827291       -3.2003475367  MEMB      106             0.0000000000
     13137       106  QMPE      C213            6.2790593776       -2.4834807615       -2.0345783120  MEMB      106             0.0000000000
     13138       106  QMPE      H13R            7.3243563503       -2.1217666087       -1.9304747001  MEMB      106             0.0000000000
     13139       106  QMPE      H13S            6.4102818907       -3.5780368857       -2.1725937941  MEMB      106             0.0000000000
     13140       106  QMPE      C214            5.4645135672       -2.0171373725       -0.8455269814  MEMB      106             0.0000000000
     13141       106  QMPE      H14R            5.2202629690       -0.9350776198       -0.9072457576  MEMB      106             0.0000000000
     13142       106  QMPE      H14S            6.0392662776       -2.3001824129        0.0621438529  MEMB      106             0.0000000000
     13143       106  QMPE      C215            4.1271078972       -2.7499338056       -0.6416965088  MEMB      106             0.0000000000
     13144       106  QMPE      H15R            3.9604414690       -3.4817192898       -1.4608608194  MEMB      106             0.0000000000
     13145       106  QMPE      H15S            3.3160832537       -2.0273787072       -0.8750931347  MEMB      106             0.0000000000
     13146       106  QMPE      C216            3.9734936933       -3.3159460866        0.8179931094  MEMB      106             0.0000000000
     13147       106  QMPE      H16R            2.9618150437       -3.6662974435        1.1147788827  MEMB      106             0.0000000000
     13148       106  QMPE      H16S            4.1103698715       -2.4909370074        1.5493925975  MEMB      106             0.0000000000
     13149       106  QMPE      H16T            4.7296986393       -4.1002715302        1.0354984288  MEMB      106             0.0000000000
     13150       106  QMPE      C33             1.6821769528       -9.7870857395      -11.0939163738  MEMB      106             0.0000000000
     13151       106  QMPE      H3X             0.7976873479       -9.2174659746      -11.4510331085  MEMB      106             0.0000000000
     13152       106  QMPE      H3Y             2.5422018665       -9.1891234826      -11.4642131154  MEMB      106             0.0000000000
     13153       106  QMPE      C34             1.6709479359       -9.8200154910       -9.6042585379  MEMB      106             0.0000000000
     13154       106  QMPE      H4X             0.8854604599      -10.5112776322       -9.2307785046  MEMB      106             0.0000000000
     13155       106  QMPE      H4Y             1.5269553341       -8.8081230492       -9.1687580560  MEMB      106             0.0000000000
     13156       106  QMPE      C35             2.9576322966      -10.3033550832       -8.9734070997  MEMB      106             0.0000000000
     13157       106  QMPE      H5X             3.6904890881       -9.4807104321       -9.1165767242  MEMB      106             0.0000000000
     13158       106  QMPE      H5Y             3.3314662936      -11.2276340351       -9.4635887692  MEMB      106             0.0000000000
     13159       106  QMPE      C36             2.7157273387      -10.7930520895       -7.5044316797  MEMB      106             0.0000000000
     13160       106  QMPE      H6X             3.6357188661      -11.2254630923       -7.0561484511  MEMB      106             0.0000000000
     13161       106  QMPE      H6Y             2.0876596094      -11.7088655852       -7.5381571600  MEMB      106             0.0000000000
     13162       106  QMPE      C37             2.3174546419       -9.6796944247       -6.4834738687  MEMB      106             0.0000000000
     13163       106  QMPE      H7X             1.3000035724       -9.3346684436       -6.7664425104  MEMB      106             0.0000000000
     13164       106  QMPE      H7Y             2.1772088067      -10.2325596910       -5.5300632101  MEMB      106             0.0000000000
     13165       106  QMPE      C38             3.2727293218       -8.4690907827       -6.3068394882  MEMB      106             0.0000000000
     13166       106  QMPE      H8X             3.0339452715       -7.8844733476       -7.2209108941  MEMB      106             0.0000000000
     13167       106  QMPE      H8Y             2.9252373224       -7.9670137182       -5.3786752739  MEMB      106             0.0000000000
     13168       106  QMPE      C39             4.8250090279       -8.7661683754       -6.3175850806  MEMB      106             0.0000000000
     13169       106  QMPE      H9X             5.2661812768       -7.7492682959       -6.3924334197  MEMB      106             0.0000000000
     13170       106  QMPE      H9Y             5.1874108669       -9.3236989384       -7.2076101354  MEMB      106             0.0000000000
     13171       106  QMPE      C310            5.3414744938       -9.5204805843       -5.0901230033  MEMB      106             0.0000000000
     13172       106  QMPE      H10X            6.4169624080       -9.7703900759       -5.2133784104  MEMB      106             0.0000000000
     13173       106  QMPE      H10Y            4.7128434213      -10.4228609139       -4.9324737709  MEMB      106             0.0000000000
     13174       106  QMPE      C311            5.1097995395       -8.7914623149       -3.7202395282  MEMB      106             0.0000000000
     13175       106  QMPE      H11X            5.7042964608       -9.4005781956       -3.0061861781  MEMB      106             0.0000000000
     13176       106  QMPE      H11Y            4.0228797865       -8.7018500131       -3.5083520275  MEMB      106             0.0000000000
     13177       106  QMPE      C312            5.5443968563       -7.2340326871       -3.6234827076  MEMB      106             0.0000000000
     13178       106  QMPE      H12X            5.0926386251       -6.6843399568       -4.4767555249  MEMB      106             0.0000000000
     13179       106  QMPE      H12Y            6.6372683379       -7.0952296608       -3.7673114904  MEMB      106             0.0000000000
     13180       106  QMPE      C313            5.1364434490       -6.5449810029       -2.3063666433  MEMB      106             0.0000000000
     13181       106  QMPE      H13X            5.2375387858       -5.4430201112       -2.4052756322  MEMB      106             0.0000000000
     13182       106  QMPE      H13Y            4.0584182563       -6.7466819398       -2.1288857262  MEMB      106             0.0000000000
     13183       106  QMPE      C314            5.9595756530       -6.8942515679       -0.9829490950  MEMB      106             0.0000000000
     13184       106  QMPE      H14X            5.7036415979       -7.9571271922       -0.7851761632  MEMB      106             0.0000000000
     13185       106  QMPE      H14Y            5.4237700451       -6.3695457040       -0.1632440546  MEMB      106             0.0000000000
     13186       106  QMPE      C315            7.4961113010       -6.7413965554       -0.9807620161  MEMB      106             0.0000000000
     13187       106  QMPE      H15X            7.9236958213       -7.4094125869       -1.7587391032  MEMB      106             0.0000000000
     13188       106  QMPE      H15Y            7.7696325359       -5.6818489618       -1.1727672700  MEMB      106             0.0000000000
     13189       106  QMPE      H15Z            7.9057394788       -7.1564463475       -0.0351088543  MEMB      106             0.0000000000
     13190       107  PMPE      N              -3.9799664693      -12.6771270672      -19.5392649946  MEMB      107             0.0000000000
     13191       107  PMPE      HN1            -3.2801175029      -12.6423478098      -18.7707587321  MEMB      107             0.0000000000
     13192       107  PMPE      HN2            -4.7955863772      -12.2468471179      -19.0584081253  MEMB      107             0.0000000000
     13193       107  PMPE      HN3            -4.2985739963      -13.6134088806      -19.8609256357  MEMB      107             0.0000000000
     13194       107  PMPE      C12            -3.4426998276      -11.8126318318      -20.6580418703  MEMB      107             0.0000000000
     13195       107  PMPE      H12A           -3.9273585929      -12.1087208042      -21.6129021828  MEMB      107             0.0000000000
     13196       107  PMPE      H12B           -2.4062317920      -12.1700068094      -20.8378697116  MEMB      107             0.0000000000
     13197       107  PMPE      C11            -3.4313916626      -10.3594593460      -20.2349769440  MEMB      107             0.0000000000
     13198       107  PMPE      H11A           -4.4919024482      -10.0373931861      -20.3118621062  MEMB      107             0.0000000000
     13199       107  PMPE      H11B           -2.9274742978       -9.7174728866      -20.9887948763  MEMB      107             0.0000000000
     13200       107  PMPE      P              -2.8967510943       -8.6621857137      -18.2964444681  MEMB      107             0.0000000000
     13201       107  PMPE      O13            -3.9978689064       -8.7027236134      -17.3315157603  MEMB      107             0.0000000000
     13202       107  PMPE      O14            -2.9776035681       -7.6630180064      -19.3750477607  MEMB      107             0.0000000000
     13203       107  PMPE      O11            -1.5333653102       -8.4301746258      -17.6228450150  MEMB      107             0.0000000000
     13204       107  PMPE      O12            -2.8287566826      -10.1710218761      -18.9418632217  MEMB      107             0.0000000000
     13205       107  PMPE      C1             -0.5312351275       -9.4482169049      -17.4251808980  MEMB      107             0.0000000000
     13206       107  PMPE      HA              0.4249427572       -9.0046641492      -17.7763300225  MEMB      107             0.0000000000
     13207       107  PMPE      HB             -0.6857038579      -10.3311771570      -18.0815661213  MEMB      107             0.0000000000
     13208       107  PMPE      C2             -0.2757294648       -9.9122869501      -15.8940599707  MEMB      107             0.0000000000
     13209       107  PMPE      HS              0.4231051880      -10.7729164570      -15.8214783375  MEMB      107             0.0000000000
     13210       107  PMPE      O21            -1.5537229609      -10.2023920179      -15.2970161388  MEMB      107             0.0000000000
     13211       107  PMPE      C21            -2.2398307324      -11.2111704081      -15.8109297028  MEMB      107             0.0000000000
     13212       107  PMPE      O22            -1.7552181416      -12.0655045367      -16.5423279321  MEMB      107             0.0000000000
     13213       107  PMPE      C22            -3.6533715577      -11.1757567322      -15.2712687389  MEMB      107             0.0000000000
     13214       107  PMPE      H2R            -4.3312195020      -10.9992713953      -16.1336468742  MEMB      107             0.0000000000
     13215       107  PMPE      H2S            -3.8121984330      -10.2722413953      -14.6445670531  MEMB      107             0.0000000000
     13216       107  PMPE      C3              0.4107466248       -8.8600723246      -15.0905353083  MEMB      107             0.0000000000
     13217       107  PMPE      HX              1.2350817776       -8.4410730172      -15.7063536251  MEMB      107             0.0000000000
     13218       107  PMPE      HY              0.8982520875       -9.3345479661      -14.2121661351  MEMB      107             0.0000000000
     13219       107  PMPE      O31            -0.4461632769       -7.7436275373      -14.6802324376  MEMB      107             0.0000000000
     13220       107  PMPE      C31            -0.9247800110       -7.6319777935      -13.4971538230  MEMB      107             0.0000000000
     13221       107  PMPE      O32            -0.8181593473       -8.3684734772      -12.5904247603  MEMB      107             0.0000000000
     13222       107  PMPE      C32            -1.3895698933       -6.1133087362      -13.4269327669  MEMB      107             0.0000000000
     13223       107  PMPE      H2X            -2.1647066158       -6.0200217545      -14.2173639248  MEMB      107             0.0000000000
     13224       107  PMPE      H2Y            -0.4840219758       -5.4917786594      -13.5942760479  MEMB      107             0.0000000000
     13225       107  PMPE      C23            -4.0130338717      -12.4378157463      -14.4807401923  MEMB      107             0.0000000000
     13226       107  PMPE      H3R            -3.7921483814      -13.2953366041      -15.1517011091  MEMB      107             0.0000000000
     13227       107  PMPE      H3S            -5.0785153085      -12.4101726472      -14.1672019170  MEMB      107             0.0000000000
     13228       107  PMPE      C24            -3.1344944062      -12.7314892216      -13.2443545559  MEMB      107             0.0000000000
     13229       107  PMPE      H4R            -2.0583518838      -12.8145850490      -13.5076667456  MEMB      107             0.0000000000
     13230       107  PMPE      H4S            -3.4189993782      -13.6728116590      -12.7273534788  MEMB      107             0.0000000000
     13231       107  PMPE      C25            -3.2820750324      -11.6652062145      -12.1595065119  MEMB      107             0.0000000000
     13232       107  PMPE      H5R            -4.3657561286      -11.5678220449      -11.9348457698  MEMB      107             0.0000000000
     13233       107  PMPE      H5S            -2.8724967429      -10.6812459973      -12.4731765690  MEMB      107             0.0000000000
     13234       107  PMPE      C26            -2.4916082642      -12.1681352892      -10.8828247099  MEMB      107             0.0000000000
     13235       107  PMPE      H6R            -1.3943257205      -12.2233486026      -11.0478812299  MEMB      107             0.0000000000
     13236       107  PMPE      H6S            -2.8073159655      -13.2213834558      -10.7237086791  MEMB      107             0.0000000000
     13237       107  PMPE      C27            -2.6223928442      -11.2155770658       -9.6901444029  MEMB      107             0.0000000000
     13238       107  PMPE      H7R            -3.6079858068      -11.3198512639       -9.1880937571  MEMB      107             0.0000000000
     13239       107  PMPE      H7S            -2.4561693080      -10.2010495583      -10.1113619598  MEMB      107             0.0000000000
     13240       107  PMPE      C28            -1.5651625608      -11.3938210932       -8.6368401905  MEMB      107             0.0000000000
     13241       107  PMPE      H8R            -0.5445545289      -11.4255381578       -9.0746458360  MEMB      107             0.0000000000
     13242       107  PMPE      H8S            -1.7693846156      -12.4070959882       -8.2295462789  MEMB      107             0.0000000000
     13243       107  PMPE      C29            -1.7405528428      -10.4044140729       -7.5542548369  MEMB      107             0.0000000000
     13244       107  PMPE      H9R            -2.7650328787      -10.3403640443       -7.1292152107  MEMB      107             0.0000000000
     13245       107  PMPE      C217           -1.1496622941       -9.0905109948       -8.0148588263  MEMB      107             0.0000000000
     13246       107  PMPE      H17R           -1.6901873105       -8.1593080378       -7.8983139369  MEMB      107             0.0000000000
     13247       107  PMPE      H17S           -0.5310454250       -9.2009317217       -8.8969071658  MEMB      107             0.0000000000
     13248       107  PMPE      C210           -0.5516807907       -9.8083765360       -6.8328246964  MEMB      107             0.0000000000
     13249       107  PMPE      H10R           -0.6234768067       -9.1628001812       -5.9314937985  MEMB      107             0.0000000000
     13250       107  PMPE      C211            0.8840387270      -10.2857186094       -6.9733372462  MEMB      107             0.0000000000
     13251       107  PMPE      H11R            1.5964950109       -9.4952699956       -6.6540915723  MEMB      107             0.0000000000
     13252       107  PMPE      H11S            1.0599467385      -10.4352910104       -8.0600784821  MEMB      107             0.0000000000
     13253       107  PMPE      C212            1.2029298331      -11.6335551719       -6.3418127729  MEMB      107             0.0000000000
     13254       107  PMPE      H12R            1.8171848677      -12.3351856500       -6.9457384759  MEMB      107             0.0000000000
     13255       107  PMPE      H12S            0.1963606598      -12.1038017215       -6.3389963338  MEMB      107             0.0000000000
     13256       107  PMPE      C213            1.6788617180      -11.6260935314       -4.8647883893  MEMB      107             0.0000000000
     13257       107  PMPE      H13R            2.4010425030      -10.7843196263       -4.8000383319  MEMB      107             0.0000000000
     13258       107  PMPE      H13S            2.2718814520      -12.5649508220       -4.8302095284  MEMB      107             0.0000000000
     13259       107  PMPE      C214            0.6081745353      -11.5535446407       -3.7524990572  MEMB      107             0.0000000000
     13260       107  PMPE      H14R            0.1461925209      -12.5639373613       -3.7529954290  MEMB      107             0.0000000000
     13261       107  PMPE      H14S           -0.1871887652      -10.8997708866       -4.1699894073  MEMB      107             0.0000000000
     13262       107  PMPE      C215            1.3341517579      -11.1381780540       -2.3724249326  MEMB      107             0.0000000000
     13263       107  PMPE      H15R            0.5776059516      -11.0250843198       -1.5667139223  MEMB      107             0.0000000000
     13264       107  PMPE      H15S            1.8947223427      -10.1988316278       -2.5666142216  MEMB      107             0.0000000000
     13265       107  PMPE      C216            2.4570425675      -12.1185489531       -1.9803415339  MEMB      107             0.0000000000
     13266       107  PMPE      H16R            3.3484734673      -11.8808532339       -2.5993512310  MEMB      107             0.0000000000
     13267       107  PMPE      H16S            2.7401642934      -11.8433493555       -0.9418680197  MEMB      107             0.0000000000
     13268       107  PMPE      H16T            2.2185384536      -13.2036104656       -1.9714850163  MEMB      107             0.0000000000
     13269       107  PMPE      C33            -2.3343017882       -5.7540372096      -12.2240845046  MEMB      107             0.0000000000
     13270       107  PMPE      H3X            -2.2858500367       -4.6924918982      -11.8999011242  MEMB      107             0.0000000000
     13271       107  PMPE      H3Y            -1.9472615126       -6.2857981452      -11.3286785936  MEMB      107             0.0000000000
     13272       107  PMPE      C34            -3.8431823286       -6.0412827192      -12.3859998640  MEMB      107             0.0000000000
     13273       107  PMPE      H4X            -4.2982866093       -5.5654564235      -13.2808689008  MEMB      107             0.0000000000
     13274       107  PMPE      H4Y            -4.2871261202       -5.6782243034      -11.4344623676  MEMB      107             0.0000000000
     13275       107  PMPE      C35            -4.1477843794       -7.4923154724      -12.5971565322  MEMB      107             0.0000000000
     13276       107  PMPE      H5X            -3.5777376708       -8.0673557028      -11.8364357129  MEMB      107             0.0000000000
     13277       107  PMPE      H5Y            -3.7993040917       -7.6901624141      -13.6333705339  MEMB      107             0.0000000000
     13278       107  PMPE      C36            -5.5963342477       -8.0127427169      -12.4530028937  MEMB      107             0.0000000000
     13279       107  PMPE      H6X            -5.7480420055       -9.0907536149      -12.6748094805  MEMB      107             0.0000000000
     13280       107  PMPE      H6Y            -6.3460678997       -7.5552656608      -13.1333961838  MEMB      107             0.0000000000
     13281       107  PMPE      C37            -6.1370717063       -7.8016383721      -11.0319152167  MEMB      107             0.0000000000
     13282       107  PMPE      H7X            -7.1891461755       -8.1505737347      -11.1074428272  MEMB      107             0.0000000000
     13283       107  PMPE      H7Y            -6.0779465473       -6.7458272551      -10.6911984562  MEMB      107             0.0000000000
     13284       107  PMPE      C38            -5.4206535401       -8.5193129733       -9.8503762952  MEMB      107             0.0000000000
     13285       107  PMPE      H8X            -4.3623147633       -8.1833839558       -9.8876812197  MEMB      107             0.0000000000
     13286       107  PMPE      H8Y            -5.5125498718       -9.6263234542       -9.8704719366  MEMB      107             0.0000000000
     13287       107  PMPE      C39            -5.9677969665       -8.2617184467       -8.4543449609  MEMB      107             0.0000000000
     13288       107  PMPE      H9X            -6.3832346515       -7.2449340972       -8.2873677174  MEMB      107             0.0000000000
     13289       107  PMPE      H9Y            -5.1308263461       -8.3466889933       -7.7286858405  MEMB      107             0.0000000000
     13290       107  PMPE      C310           -7.0658998559       -9.1995061027       -7.8684516242  MEMB      107             0.0000000000
     13291       107  PMPE      H10X           -7.8448597214       -9.4510984967       -8.6196131229  MEMB      107             0.0000000000
     13292       107  PMPE      H10Y           -7.5650284972       -8.5920947331       -7.0834404845  MEMB      107             0.0000000000
     13293       107  PMPE      C311           -6.5012700479      -10.6243301752       -7.4071328150  MEMB      107             0.0000000000
     13294       107  PMPE      H11X           -5.6318360767      -10.9273660846       -8.0288846511  MEMB      107             0.0000000000
     13295       107  PMPE      H11Y           -7.3070303156      -11.3768775373       -7.5440408485  MEMB      107             0.0000000000
     13296       107  PMPE      C312           -6.1083817341      -10.7103918923       -5.9724770173  MEMB      107             0.0000000000
     13297       107  PMPE      H12X           -6.8998464361      -10.3445136834       -5.2839731364  MEMB      107             0.0000000000
     13298       107  PMPE      H12Y           -5.1770781684      -10.1283553192       -5.8044648823  MEMB      107             0.0000000000
     13299       107  PMPE      C313           -5.6960568487      -12.1321542807       -5.4575916572  MEMB      107             0.0000000000
     13300       107  PMPE      H13X           -4.9549059914      -12.6780844153       -6.0796657414  MEMB      107             0.0000000000
     13301       107  PMPE      H13Y           -6.5119963564      -12.8813504947       -5.5428508671  MEMB      107             0.0000000000
     13302       107  PMPE      C314           -5.1763487620      -12.0767435997       -3.9887025783  MEMB      107             0.0000000000
     13303       107  PMPE      H14X           -5.7937198146      -11.4651041493       -3.2965533760  MEMB      107             0.0000000000
     13304       107  PMPE      H14Y           -4.1784724914      -11.5892978799       -3.9577096151  MEMB      107             0.0000000000
     13305       107  PMPE      C315           -4.9120437690      -13.4166707345       -3.3567602684  MEMB      107             0.0000000000
     13306       107  PMPE      H15X           -4.5609969764      -14.2219312613       -4.0369391143  MEMB      107             0.0000000000
     13307       107  PMPE      H15Y           -5.9175853767      -13.8332349780       -3.1338684121  MEMB      107             0.0000000000
     13308       107  PMPE      C316           -4.1107937897      -13.4026918635       -2.0888227383  MEMB      107             0.0000000000
     13309       107  PMPE      H16X           -3.9032202429      -14.4492561768       -1.7790856997  MEMB      107             0.0000000000
     13310       107  PMPE      H16Y           -4.7897407493      -12.9233072981       -1.3515707610  MEMB      107             0.0000000000
     13311       107  PMPE      H16Z           -3.1510092744      -12.8587998418       -2.2204136740  MEMB      107             0.0000000000
     13312       108  PMPE      N               8.4808891166        8.5726909981      -20.3149539090  MEMB      108             0.0000000000
     13313       108  PMPE      HN1             9.2983329005        9.0225328498      -20.7743316477  MEMB      108             0.0000000000
     13314       108  PMPE      HN2             7.5981837572        8.9339570545      -20.7295842132  MEMB      108             0.0000000000
     13315       108  PMPE      HN3             8.4303157450        8.8645858254      -19.3180388387  MEMB      108             0.0000000000
     13316       108  PMPE      C12             8.7456903348        7.0897230975      -20.4023923015  MEMB      108             0.0000000000
     13317       108  PMPE      H12A            8.3700336892        6.8517449616      -21.4205128172  MEMB      108             0.0000000000
     13318       108  PMPE      H12B            8.2163252581        6.4712893456      -19.6463279453  MEMB      108             0.0000000000
     13319       108  PMPE      C11            10.2568566999        6.7178870890      -20.3883056936  MEMB      108             0.0000000000
     13320       108  PMPE      H11A           10.6890401686        7.4266642399      -21.1266641635  MEMB      108             0.0000000000
     13321       108  PMPE      H11B           10.4767990075        5.6999029902      -20.7751580758  MEMB      108             0.0000000000
     13322       108  PMPE      P              11.0702717190        5.8195046902      -18.2111141018  MEMB      108             0.0000000000
     13323       108  PMPE      O13            12.1998987668        5.0360161759      -18.5738509800  MEMB      108             0.0000000000
     13324       108  PMPE      O14             9.8192170779        5.0041997465      -18.1388754290  MEMB      108             0.0000000000
     13325       108  PMPE      O11            11.3530191128        6.5241644766      -16.8062263347  MEMB      108             0.0000000000
     13326       108  PMPE      O12            10.8759843685        7.1266897272      -19.1642812519  MEMB      108             0.0000000000
     13327       108  PMPE      C1             12.2663582646        7.6442516941      -16.6961100571  MEMB      108             0.0000000000
     13328       108  PMPE      HA             11.7047782845        8.5341431847      -17.0525396496  MEMB      108             0.0000000000
     13329       108  PMPE      HB             13.1901543665        7.3556634141      -17.2416726605  MEMB      108             0.0000000000
     13330       108  PMPE      C2             12.7065374125        7.8897177667      -15.2228229296  MEMB      108             0.0000000000
     13331       108  PMPE      HS             13.6865466391        8.4103798215      -15.2758687282  MEMB      108             0.0000000000
     13332       108  PMPE      O21            12.7124874329        6.7824932648      -14.3228298808  MEMB      108             0.0000000000
     13333       108  PMPE      C21            13.8393442812        5.9922406348      -14.5670158983  MEMB      108             0.0000000000
     13334       108  PMPE      O22            14.7499704558        6.2198459968      -15.3007395964  MEMB      108             0.0000000000
     13335       108  PMPE      C22            13.7099483197        4.7303967614      -13.7184548958  MEMB      108             0.0000000000
     13336       108  PMPE      H2R            14.4726540337        3.9606690442      -13.9636494443  MEMB      108             0.0000000000
     13337       108  PMPE      H2S            12.6897279857        4.3021013030      -13.8186268238  MEMB      108             0.0000000000
     13338       108  PMPE      C3             11.8033979243        8.9450000801      -14.5205444738  MEMB      108             0.0000000000
     13339       108  PMPE      HX             10.7515874040        8.5925485745      -14.4589505971  MEMB      108             0.0000000000
     13340       108  PMPE      HY             11.7387737365        9.8045700707      -15.2214609538  MEMB      108             0.0000000000
     13341       108  PMPE      O31            12.3346129039        9.2858880615      -13.1864748205  MEMB      108             0.0000000000
     13342       108  PMPE      C31            11.8871341923        8.6257645353      -12.1291702012  MEMB      108             0.0000000000
     13343       108  PMPE      O32            11.0740297387        7.7584313344      -12.1392965880  MEMB      108             0.0000000000
     13344       108  PMPE      C32            12.4752706114        9.3456093454      -10.8818177060  MEMB      108             0.0000000000
     13345       108  PMPE      H2X            13.3703682615        9.8919191973      -11.2487881117  MEMB      108             0.0000000000
     13346       108  PMPE      H2Y            12.8508486902        8.5697251313      -10.1809145441  MEMB      108             0.0000000000
     13347       108  PMPE      C23            13.8622245271        4.9385153308      -12.2533690657  MEMB      108             0.0000000000
     13348       108  PMPE      H3R            13.7260604767        6.0343257743      -12.1309774815  MEMB      108             0.0000000000
     13349       108  PMPE      H3S            14.8274573898        4.6313030562      -11.7970056921  MEMB      108             0.0000000000
     13350       108  PMPE      C24            12.7826386348        4.3420248064      -11.3171782026  MEMB      108             0.0000000000
     13351       108  PMPE      H4R            12.7673466478        3.2449493765      -11.4918578446  MEMB      108             0.0000000000
     13352       108  PMPE      H4S            11.8148312108        4.6845297833      -11.7418665938  MEMB      108             0.0000000000
     13353       108  PMPE      C25            12.9206724371        4.4708727183       -9.8558382766  MEMB      108             0.0000000000
     13354       108  PMPE      H5R            13.1824862970        5.5187573612       -9.5956223414  MEMB      108             0.0000000000
     13355       108  PMPE      H5S            13.6931241385        3.8130809558       -9.4031252915  MEMB      108             0.0000000000
     13356       108  PMPE      C26            11.7260693663        4.0553501503       -8.9587586177  MEMB      108             0.0000000000
     13357       108  PMPE      H6R            11.7826719225        2.9498234355       -9.0532466955  MEMB      108             0.0000000000
     13358       108  PMPE      H6S            10.7681267308        4.5150767622       -9.2832863847  MEMB      108             0.0000000000
     13359       108  PMPE      C27            11.9046892348        4.3897385616       -7.4769716442  MEMB      108             0.0000000000
     13360       108  PMPE      H7R            12.3443489885        5.4039268017       -7.3654262534  MEMB      108             0.0000000000
     13361       108  PMPE      H7S            12.6479531008        3.6691271509       -7.0737354057  MEMB      108             0.0000000000
     13362       108  PMPE      C28            10.5827297682        4.4119411212       -6.7050962224  MEMB      108             0.0000000000
     13363       108  PMPE      H8R             9.9184804444        5.2580380881       -6.9829695337  MEMB      108             0.0000000000
     13364       108  PMPE      H8S            10.8455919317        4.6441400314       -5.6509103217  MEMB      108             0.0000000000
     13365       108  PMPE      C29             9.8861117019        3.0638963906       -6.4577388445  MEMB      108             0.0000000000
     13366       108  PMPE      H9R            10.4744341651        2.1660783721       -6.1711728795  MEMB      108             0.0000000000
     13367       108  PMPE      C217            8.6724576472        2.6758564620       -7.3602436420  MEMB      108             0.0000000000
     13368       108  PMPE      H17R            8.8199704442        1.6215570411       -7.5591948471  MEMB      108             0.0000000000
     13369       108  PMPE      H17S            8.5229113993        3.5361079589       -8.0009407049  MEMB      108             0.0000000000
     13370       108  PMPE      C210            8.5429311017        2.8834592367       -5.8877738804  MEMB      108             0.0000000000
     13371       108  PMPE      H10R            8.4992735344        1.9916434316       -5.2266535228  MEMB      108             0.0000000000
     13372       108  PMPE      C211            7.6447006496        4.0454399734       -5.4387054993  MEMB      108             0.0000000000
     13373       108  PMPE      H11R            6.5924209519        3.6900452738       -5.4118175526  MEMB      108             0.0000000000
     13374       108  PMPE      H11S            7.5161317278        4.7987830089       -6.2450958091  MEMB      108             0.0000000000
     13375       108  PMPE      C212            7.9689570895        4.7043502176       -4.0844027442  MEMB      108             0.0000000000
     13376       108  PMPE      H12R            7.0804582951        5.3512925183       -3.9220555968  MEMB      108             0.0000000000
     13377       108  PMPE      H12S            8.8860140075        5.3311144249       -4.1066340452  MEMB      108             0.0000000000
     13378       108  PMPE      C213            8.1504318110        3.7227727007       -2.8756759248  MEMB      108             0.0000000000
     13379       108  PMPE      H13R            8.8825736766        2.8982097832       -3.0112648839  MEMB      108             0.0000000000
     13380       108  PMPE      H13S            7.3012709902        3.0369612072       -2.6685291411  MEMB      108             0.0000000000
     13381       108  PMPE      C214            8.5622674688        4.3966113840       -1.5728614332  MEMB      108             0.0000000000
     13382       108  PMPE      H14R            7.8327922266        5.1894471904       -1.3015720595  MEMB      108             0.0000000000
     13383       108  PMPE      H14S            9.5416301449        4.8811461468       -1.7738487585  MEMB      108             0.0000000000
     13384       108  PMPE      C215            8.5709601068        3.4233562888       -0.4111240954  MEMB      108             0.0000000000
     13385       108  PMPE      H15R            9.3271102841        2.6412401803       -0.6366282152  MEMB      108             0.0000000000
     13386       108  PMPE      H15S            7.6118478290        2.8730478867       -0.3034878014  MEMB      108             0.0000000000
     13387       108  PMPE      C216            8.8196474825        4.0782089063        0.8897478584  MEMB      108             0.0000000000
     13388       108  PMPE      H16R            9.7709187799        4.6516231477        0.9142471119  MEMB      108             0.0000000000
     13389       108  PMPE      H16S            7.9531474008        4.7205270262        1.1560673088  MEMB      108             0.0000000000
     13390       108  PMPE      H16T            8.8736305402        3.3253548124        1.7049875210  MEMB      108             0.0000000000
     13391       108  PMPE      C33            11.5250002017       10.3801641910      -10.4517947925  MEMB      108             0.0000000000
     13392       108  PMPE      H3X            11.3062883032       11.0930248655      -11.2753941647  MEMB      108             0.0000000000
     13393       108  PMPE      H3Y            11.9809338186       10.8989249327       -9.5815458143  MEMB      108             0.0000000000
     13394       108  PMPE      C34            10.2064717597        9.8210363215       -9.8792736044  MEMB      108             0.0000000000
     13395       108  PMPE      H4X             9.6549351131        9.3870274625      -10.7405314648  MEMB      108             0.0000000000
     13396       108  PMPE      H4Y             9.6970092804       10.6766889305       -9.3867012432  MEMB      108             0.0000000000
     13397       108  PMPE      C35            10.2677140309        8.6516420181       -8.8272564691  MEMB      108             0.0000000000
     13398       108  PMPE      H5X            11.1022201163        7.9792011955       -9.1200772679  MEMB      108             0.0000000000
     13399       108  PMPE      H5Y             9.3079875620        8.0951232928       -8.7678176222  MEMB      108             0.0000000000
     13400       108  PMPE      C36            10.4492567911        9.0097252352       -7.3393164821  MEMB      108             0.0000000000
     13401       108  PMPE      H6X             9.8552575939        9.9213107786       -7.1145988876  MEMB      108             0.0000000000
     13402       108  PMPE      H6Y            11.4873685525        9.4049706654       -7.3599523446  MEMB      108             0.0000000000
     13403       108  PMPE      C37            10.2473767778        7.8375512985       -6.3225639295  MEMB      108             0.0000000000
     13404       108  PMPE      H7X            10.9086367709        6.9561048163       -6.4643681218  MEMB      108             0.0000000000
     13405       108  PMPE      H7Y             9.2260558270        7.4452918559       -6.5158433408  MEMB      108             0.0000000000
     13406       108  PMPE      C38            10.1442446911        8.2154464925       -4.8223645577  MEMB      108             0.0000000000
     13407       108  PMPE      H8X             9.5139739433        7.5366606193       -4.2089079616  MEMB      108             0.0000000000
     13408       108  PMPE      H8Y             9.8029781544        9.2454474615       -4.5837096646  MEMB      108             0.0000000000
     13409       108  PMPE      C39            11.5521659414        8.0001673991       -4.1680382643  MEMB      108             0.0000000000
     13410       108  PMPE      H9X            12.1534450297        8.9132378756       -4.3657412206  MEMB      108             0.0000000000
     13411       108  PMPE      H9Y            12.0996159632        7.1296192181       -4.5884733475  MEMB      108             0.0000000000
     13412       108  PMPE      C310           11.3975033496        7.9341663328       -2.6181930006  MEMB      108             0.0000000000
     13413       108  PMPE      H10X           10.9070288187        6.9522140127       -2.4463635351  MEMB      108             0.0000000000
     13414       108  PMPE      H10Y           10.8199018944        8.8626627698       -2.4217439257  MEMB      108             0.0000000000
     13415       108  PMPE      C311           12.6763348755        8.0757477825       -1.8200764964  MEMB      108             0.0000000000
     13416       108  PMPE      H11X           13.2619959294        9.0115498556       -1.9449609869  MEMB      108             0.0000000000
     13417       108  PMPE      H11Y           13.4129354301        7.3221809714       -2.1720383067  MEMB      108             0.0000000000
     13418       108  PMPE      C312           12.4636673748        7.7561400124       -0.3730425834  MEMB      108             0.0000000000
     13419       108  PMPE      H12X           13.3343108137        8.0094985744        0.2689153223  MEMB      108             0.0000000000
     13420       108  PMPE      H12Y           12.4127014393        6.6469750251       -0.3346184483  MEMB      108             0.0000000000
     13421       108  PMPE      C313           11.1344059053        8.2550123148        0.1824412118  MEMB      108             0.0000000000
     13422       108  PMPE      H13X           11.0118007401        7.8474204319        1.2086756245  MEMB      108             0.0000000000
     13423       108  PMPE      H13Y           10.2309883640        7.8214506324       -0.2973313688  MEMB      108             0.0000000000
     13424       108  PMPE      C314           11.1209616488        9.7860400244        0.3437319616  MEMB      108             0.0000000000
     13425       108  PMPE      H14X           10.9777391973       10.2805391361       -0.6407874298  MEMB      108             0.0000000000
     13426       108  PMPE      H14Y           12.0871463780       10.1189925606        0.7795650929  MEMB      108             0.0000000000
     13427       108  PMPE      C315           10.0690450245       10.2168963564        1.3573827385  MEMB      108             0.0000000000
     13428       108  PMPE      H15X           10.0142718678       11.3242158539        1.4292458577  MEMB      108             0.0000000000
     13429       108  PMPE      H15Y           10.2666957705        9.7611907727        2.3511581390  MEMB      108             0.0000000000
     13430       108  PMPE      C316            8.7099535127        9.7420075317        0.9983371226  MEMB      108             0.0000000000
     13431       108  PMPE      H16X            7.9408986991       10.2757763634        1.5966392846  MEMB      108             0.0000000000
     13432       108  PMPE      H16Y            8.5988190676        8.6992436618        1.3652336685  MEMB      108             0.0000000000
     13433       108  PMPE      H16Z            8.3849848866        9.8719395181       -0.0560992826  MEMB      108             0.0000000000
     13434       109  PMPE      N              -0.6589659683       12.2449605530      -21.1263869883  MEMB      109             0.0000000000
     13435       109  PMPE      HN1            -0.4152932470       11.4083083815      -21.6940459797  MEMB      109             0.0000000000
     13436       109  PMPE      HN2            -1.4965449442       12.7623460660      -21.4616088209  MEMB      109             0.0000000000
     13437       109  PMPE      HN3             0.2242944546       12.7895887480      -21.1958924360  MEMB      109             0.0000000000
     13438       109  PMPE      C12            -0.8969041507       11.7082443228      -19.7724356620  MEMB      109             0.0000000000
     13439       109  PMPE      H12A           -0.7916086391       12.5575752686      -19.0640072136  MEMB      109             0.0000000000
     13440       109  PMPE      H12B           -0.2405726271       10.8209779096      -19.6447305255  MEMB      109             0.0000000000
     13441       109  PMPE      C11            -2.2567505611       11.0011037223      -19.4961334993  MEMB      109             0.0000000000
     13442       109  PMPE      H11A           -2.0923214749       10.5141905079      -18.5111463619  MEMB      109             0.0000000000
     13443       109  PMPE      H11B           -2.3009850859       10.1206042470      -20.1722141092  MEMB      109             0.0000000000
     13444       109  PMPE      P              -4.0758150078       12.4677787703      -18.2872685988  MEMB      109             0.0000000000
     13445       109  PMPE      O13            -5.3247791939       13.1770793218      -18.6335577724  MEMB      109             0.0000000000
     13446       109  PMPE      O14            -3.0321698567       13.1292160305      -17.4657009528  MEMB      109             0.0000000000
     13447       109  PMPE      O11            -4.5733353263       11.1192928052      -17.5530463490  MEMB      109             0.0000000000
     13448       109  PMPE      O12            -3.3341707805       11.9346780819      -19.6654701407  MEMB      109             0.0000000000
     13449       109  PMPE      C1             -5.2855714778       10.1513871062      -18.2625136220  MEMB      109             0.0000000000
     13450       109  PMPE      HA             -4.7225605970        9.7701453248      -19.1411458486  MEMB      109             0.0000000000
     13451       109  PMPE      HB             -6.2192686041       10.5308906400      -18.7299618389  MEMB      109             0.0000000000
     13452       109  PMPE      C2             -5.5313687075        8.9477403581      -17.2080397184  MEMB      109             0.0000000000
     13453       109  PMPE      HS             -6.2642364769        8.3175058008      -17.7557895455  MEMB      109             0.0000000000
     13454       109  PMPE      O21            -6.0143021961        9.3505192593      -15.8639390498  MEMB      109             0.0000000000
     13455       109  PMPE      C21            -7.0795514744       10.1498630752      -15.8104945787  MEMB      109             0.0000000000
     13456       109  PMPE      O22            -7.7889934788       10.5294787626      -16.7104140540  MEMB      109             0.0000000000
     13457       109  PMPE      C22            -7.3040232630       10.5827612939      -14.4102584778  MEMB      109             0.0000000000
     13458       109  PMPE      H2R            -8.2498181868       11.1656710037      -14.4132846283  MEMB      109             0.0000000000
     13459       109  PMPE      H2S            -6.5183528993       11.3194285658      -14.1375601133  MEMB      109             0.0000000000
     13460       109  PMPE      C3             -4.1324924838        8.2713475756      -17.0084475267  MEMB      109             0.0000000000
     13461       109  PMPE      HX             -3.7970017021        7.9181170028      -18.0069440293  MEMB      109             0.0000000000
     13462       109  PMPE      HY             -4.1898614505        7.3538801184      -16.3845215253  MEMB      109             0.0000000000
     13463       109  PMPE      O31            -3.2103241232        9.2308340619      -16.4210263369  MEMB      109             0.0000000000
     13464       109  PMPE      C31            -3.0959704169        9.2795363231      -15.0979179435  MEMB      109             0.0000000000
     13465       109  PMPE      O32            -3.5136605428        8.5220539915      -14.3051679815  MEMB      109             0.0000000000
     13466       109  PMPE      C32            -2.6090421336       10.6811124232      -14.6370299425  MEMB      109             0.0000000000
     13467       109  PMPE      H2X            -3.5100419431       11.2368779084      -14.2999174085  MEMB      109             0.0000000000
     13468       109  PMPE      H2Y            -2.2944081243       11.3742655117      -15.4462675823  MEMB      109             0.0000000000
     13469       109  PMPE      C23            -7.4745057356        9.4122089029      -13.3914172403  MEMB      109             0.0000000000
     13470       109  PMPE      H3R            -6.5111867744        8.9341664703      -13.1124670211  MEMB      109             0.0000000000
     13471       109  PMPE      H3S            -8.0750133106        8.6755076130      -13.9667282487  MEMB      109             0.0000000000
     13472       109  PMPE      C24            -8.3468634373        9.7396144669      -12.1927433445  MEMB      109             0.0000000000
     13473       109  PMPE      H4R            -8.3624741019        8.8007267509      -11.5989698276  MEMB      109             0.0000000000
     13474       109  PMPE      H4S            -9.3747270291        9.9708808135      -12.5453530697  MEMB      109             0.0000000000
     13475       109  PMPE      C25            -7.9712147785       10.9156662624      -11.2860400928  MEMB      109             0.0000000000
     13476       109  PMPE      H5R            -8.8089113276       11.1838603411      -10.6073219830  MEMB      109             0.0000000000
     13477       109  PMPE      H5S            -7.8158860919       11.8671070627      -11.8382670704  MEMB      109             0.0000000000
     13478       109  PMPE      C26            -6.5514354992       10.7241672619      -10.5605818101  MEMB      109             0.0000000000
     13479       109  PMPE      H6R            -6.2595701613       11.7517716940      -10.2553528627  MEMB      109             0.0000000000
     13480       109  PMPE      H6S            -5.8599204801       10.3021600470      -11.3208692156  MEMB      109             0.0000000000
     13481       109  PMPE      C27            -6.6403843318        9.6772704843       -9.4397913403  MEMB      109             0.0000000000
     13482       109  PMPE      H7R            -5.6161386157        9.5382158630       -9.0324757085  MEMB      109             0.0000000000
     13483       109  PMPE      H7S            -7.2274112806        8.7740086468       -9.7115236299  MEMB      109             0.0000000000
     13484       109  PMPE      C28            -7.3754087454       10.2967975440       -8.3190465031  MEMB      109             0.0000000000
     13485       109  PMPE      H8R            -8.4372950829       10.4083009763       -8.6261060978  MEMB      109             0.0000000000
     13486       109  PMPE      H8S            -7.0172150525       11.3421436184       -8.2038508215  MEMB      109             0.0000000000
     13487       109  PMPE      C29            -7.2139625780        9.5546691183       -7.0217812517  MEMB      109             0.0000000000
     13488       109  PMPE      H9R            -6.1761476414        9.2385137999       -6.7823926229  MEMB      109             0.0000000000
     13489       109  PMPE      C217           -8.3622574673        8.5706818156       -6.7505871778  MEMB      109             0.0000000000
     13490       109  PMPE      H17R           -7.9983751061        7.7235837732       -6.1823416527  MEMB      109             0.0000000000
     13491       109  PMPE      H17S           -8.9444086300        8.4747842587       -7.6587685431  MEMB      109             0.0000000000
     13492       109  PMPE      C210           -8.2184813187        9.9038323578       -5.9362593226  MEMB      109             0.0000000000
     13493       109  PMPE      H10R           -8.0804033920        9.8325763783       -4.8361788544  MEMB      109             0.0000000000
     13494       109  PMPE      C211           -9.4597089185       10.7989020703       -6.2570928199  MEMB      109             0.0000000000
     13495       109  PMPE      H11R          -10.2579397191       10.7120320257       -5.4892372975  MEMB      109             0.0000000000
     13496       109  PMPE      H11S           -9.9579822126       10.5289254155       -7.2126857012  MEMB      109             0.0000000000
     13497       109  PMPE      C212           -9.1541798941       12.2876444631       -6.3295906243  MEMB      109             0.0000000000
     13498       109  PMPE      H12R          -10.1175691789       12.8400186300       -6.3625287822  MEMB      109             0.0000000000
     13499       109  PMPE      H12S           -8.6235520549       12.5516323141       -7.2693057024  MEMB      109             0.0000000000
     13500       109  PMPE      C213           -8.3259981927       12.8047039738       -5.1520617308  MEMB      109             0.0000000000
     13501       109  PMPE      H13R           -7.2632300425       12.5377803353       -5.3353552089  MEMB      109             0.0000000000
     13502       109  PMPE      H13S           -8.6452580700       12.3494782312       -4.1902074496  MEMB      109             0.0000000000
     13503       109  PMPE      C214           -8.3761261374       14.3841953329       -4.9530842723  MEMB      109             0.0000000000
     13504       109  PMPE      H14R           -9.3520666711       14.8110053071       -4.6373402643  MEMB      109             0.0000000000
     13505       109  PMPE      H14S           -8.1719763309       14.8504351088       -5.9406398827  MEMB      109             0.0000000000
     13506       109  PMPE      C215           -7.2612503533       14.8793974684       -3.9783302856  MEMB      109             0.0000000000
     13507       109  PMPE      H15R           -7.2230712605       15.9897389282       -3.9760193822  MEMB      109             0.0000000000
     13508       109  PMPE      H15S           -6.2818004462       14.5255392672       -4.3653481101  MEMB      109             0.0000000000
     13509       109  PMPE      C216           -7.3721307716       14.3666634537       -2.5549538121  MEMB      109             0.0000000000
     13510       109  PMPE      H16R           -6.4522338413       14.5800392745       -1.9696492900  MEMB      109             0.0000000000
     13511       109  PMPE      H16S           -8.2765301993       14.8286723232       -2.1044762576  MEMB      109             0.0000000000
     13512       109  PMPE      H16T           -7.4774283630       13.2650701963       -2.4563343121  MEMB      109             0.0000000000
     13513       109  PMPE      C33            -1.5013601861       10.6217898512      -13.6033152327  MEMB      109             0.0000000000
     13514       109  PMPE      H3X            -0.5954318658       10.1989388829      -14.0878897125  MEMB      109             0.0000000000
     13515       109  PMPE      H3Y            -1.6586219218        9.9889304666      -12.7038276287  MEMB      109             0.0000000000
     13516       109  PMPE      C34            -0.9714657457       12.0818842282      -13.3516700275  MEMB      109             0.0000000000
     13517       109  PMPE      H4X            -0.8358924201       12.6615325943      -14.2897259283  MEMB      109             0.0000000000
     13518       109  PMPE      H4Y             0.0595889378       12.0703889658      -12.9380091371  MEMB      109             0.0000000000
     13519       109  PMPE      C35            -1.8381567758       12.8677529475      -12.4388483340  MEMB      109             0.0000000000
     13520       109  PMPE      H5X            -2.5602449642       12.3045119143      -11.8098260298  MEMB      109             0.0000000000
     13521       109  PMPE      H5Y            -2.5544015106       13.4344798650      -13.0714107000  MEMB      109             0.0000000000
     13522       109  PMPE      C36            -1.1369598991       13.9033180991      -11.4847508559  MEMB      109             0.0000000000
     13523       109  PMPE      H6X            -0.4651170079       14.5718866590      -12.0643749576  MEMB      109             0.0000000000
     13524       109  PMPE      H6Y            -0.4191058084       13.3427835600      -10.8485063775  MEMB      109             0.0000000000
     13525       109  PMPE      C37            -2.1826992749       14.6646951311      -10.7891928660  MEMB      109             0.0000000000
     13526       109  PMPE      H7X            -2.9123037219       15.1342328093      -11.4831183937  MEMB      109             0.0000000000
     13527       109  PMPE      H7Y            -1.7074802810       15.4604391261      -10.1765925827  MEMB      109             0.0000000000
     13528       109  PMPE      C38            -3.0526847164       13.9547012055       -9.6912330121  MEMB      109             0.0000000000
     13529       109  PMPE      H8X            -3.7338699695       13.3522470810      -10.3294784739  MEMB      109             0.0000000000
     13530       109  PMPE      H8Y            -3.7810412732       14.6716290137       -9.2555363036  MEMB      109             0.0000000000
     13531       109  PMPE      C39            -2.4094247829       13.0527926490       -8.6196074388  MEMB      109             0.0000000000
     13532       109  PMPE      H9X            -1.7074999855       13.6633952742       -8.0123290542  MEMB      109             0.0000000000
     13533       109  PMPE      H9Y            -1.8903824977       12.2287333903       -9.1542498802  MEMB      109             0.0000000000
     13534       109  PMPE      C310           -3.4943461275       12.3988478416       -7.7085371874  MEMB      109             0.0000000000
     13535       109  PMPE      H10X           -2.9914520409       11.4811518638       -7.3353708899  MEMB      109             0.0000000000
     13536       109  PMPE      H10Y           -4.2675199251       11.8460950887       -8.2838522689  MEMB      109             0.0000000000
     13537       109  PMPE      C311           -3.9888141873       13.2631848376       -6.6110691273  MEMB      109             0.0000000000
     13538       109  PMPE      H11X           -4.7365636339       12.6188382814       -6.1011579652  MEMB      109             0.0000000000
     13539       109  PMPE      H11Y           -4.5209082041       14.0764912886       -7.1493343572  MEMB      109             0.0000000000
     13540       109  PMPE      C312           -2.9910432276       13.7146814920       -5.5199465668  MEMB      109             0.0000000000
     13541       109  PMPE      H12X           -3.5733977320       14.2088858541       -4.7131347718  MEMB      109             0.0000000000
     13542       109  PMPE      H12Y           -2.1243721785       14.3566546017       -5.7865423034  MEMB      109             0.0000000000
     13543       109  PMPE      C313           -2.3269068291       12.5281944564       -4.8082507542  MEMB      109             0.0000000000
     13544       109  PMPE      H13X           -1.6197167781       12.9195139445       -4.0459702022  MEMB      109             0.0000000000
     13545       109  PMPE      H13Y           -1.8761289348       11.8010637703       -5.5170530369  MEMB      109             0.0000000000
     13546       109  PMPE      C314           -3.3616174025       11.7928019267       -4.0029369859  MEMB      109             0.0000000000
     13547       109  PMPE      H14X           -3.9710476517       11.1300317302       -4.6538215797  MEMB      109             0.0000000000
     13548       109  PMPE      H14Y           -4.1932532488       12.4419344938       -3.6546122228  MEMB      109             0.0000000000
     13549       109  PMPE      C315           -2.8416567775       10.9781904488       -2.7901000116  MEMB      109             0.0000000000
     13550       109  PMPE      H15X           -1.7772521177       11.2487576714       -2.6223003610  MEMB      109             0.0000000000
     13551       109  PMPE      H15Y           -2.6777005423        9.9344090187       -3.1335519830  MEMB      109             0.0000000000
     13552       109  PMPE      C316           -3.5746788014       11.0203531104       -1.4674190296  MEMB      109             0.0000000000
     13553       109  PMPE      H16X           -3.2297364282       10.2602359988       -0.7342369622  MEMB      109             0.0000000000
     13554       109  PMPE      H16Y           -4.6349919048       10.7121981060       -1.5902897258  MEMB      109             0.0000000000
     13555       109  PMPE      H16Z           -3.6496125415       11.9940825683       -0.9377428197  MEMB      109             0.0000000000
     13556       110  PMPE      N               6.5564304951       13.8830926910      -21.5429371721  MEMB      110             0.0000000000
     13557       110  PMPE      HN1             6.0659406551       13.4542144179      -22.3535437318  MEMB      110             0.0000000000
     13558       110  PMPE      HN2             7.1537405019       14.6272570380      -21.9565074363  MEMB      110             0.0000000000
     13559       110  PMPE      HN3             7.0478994494       13.2271466873      -20.9027864550  MEMB      110             0.0000000000
     13560       110  PMPE      C12             5.4049893412       14.4823941092      -20.7238295806  MEMB      110             0.0000000000
     13561       110  PMPE      H12A            4.5903171759       13.7270167342      -20.7178800510  MEMB      110             0.0000000000
     13562       110  PMPE      H12B            5.0142845864       15.3806622660      -21.2480291629  MEMB      110             0.0000000000
     13563       110  PMPE      C11             5.7624758018       14.7622673149      -19.2632142492  MEMB      110             0.0000000000
     13564       110  PMPE      H11A            4.8310503803       14.9600477648      -18.6908065511  MEMB      110             0.0000000000
     13565       110  PMPE      H11B            6.3924240863       15.6412377180      -19.0084648959  MEMB      110             0.0000000000
     13566       110  PMPE      P               5.8623771200       12.4415044106      -18.1001919125  MEMB      110             0.0000000000
     13567       110  PMPE      O13             6.8399031661       11.7170487678      -17.2099333256  MEMB      110             0.0000000000
     13568       110  PMPE      O14             5.1944765187       11.6875985354      -19.2169158570  MEMB      110             0.0000000000
     13569       110  PMPE      O11             4.7162745064       13.1894184786      -17.1956897044  MEMB      110             0.0000000000
     13570       110  PMPE      O12             6.5592650284       13.7088284894      -18.7472881985  MEMB      110             0.0000000000
     13571       110  PMPE      C1              3.7112941565       12.3723376881      -16.4670040810  MEMB      110             0.0000000000
     13572       110  PMPE      HA              4.2174708643       11.9835398099      -15.5576402949  MEMB      110             0.0000000000
     13573       110  PMPE      HB              3.3330272663       11.5498494619      -17.1110135411  MEMB      110             0.0000000000
     13574       110  PMPE      C2              2.5805265568       13.2846671599      -15.9467295687  MEMB      110             0.0000000000
     13575       110  PMPE      HS              2.1282819913       13.9901675005      -16.6761573411  MEMB      110             0.0000000000
     13576       110  PMPE      O21             3.1622699451       14.1216987742      -14.8940812494  MEMB      110             0.0000000000
     13577       110  PMPE      C21             2.6159160872       15.2803907556      -14.5395263464  MEMB      110             0.0000000000
     13578       110  PMPE      O22             1.6335498727       15.7683834359      -15.0490173435  MEMB      110             0.0000000000
     13579       110  PMPE      C22             3.4584187570       15.8499587318      -13.4650214006  MEMB      110             0.0000000000
     13580       110  PMPE      H2R             4.5514816211       15.8168369969      -13.6610768467  MEMB      110             0.0000000000
     13581       110  PMPE      H2S             3.3810897069       15.3594594958      -12.4711643259  MEMB      110             0.0000000000
     13582       110  PMPE      C3              1.3391608144       12.4589520589      -15.3424428462  MEMB      110             0.0000000000
     13583       110  PMPE      HX              0.9530276486       11.8366258310      -16.1778661660  MEMB      110             0.0000000000
     13584       110  PMPE      HY              0.6104869139       13.2947342925      -15.2729934592  MEMB      110             0.0000000000
     13585       110  PMPE      O31             1.6328796394       11.5940258120      -14.2359439705  MEMB      110             0.0000000000
     13586       110  PMPE      C31             1.1461720785       11.9422814657      -13.0734724375  MEMB      110             0.0000000000
     13587       110  PMPE      O32             0.5500467412       12.9281859337      -12.7678512702  MEMB      110             0.0000000000
     13588       110  PMPE      C32             1.4830502685       10.8420372241      -12.0931612304  MEMB      110             0.0000000000
     13589       110  PMPE      H2X             2.5779577991       10.6677516578      -12.1647362702  MEMB      110             0.0000000000
     13590       110  PMPE      H2Y             0.9714439493        9.8913403137      -12.3553717121  MEMB      110             0.0000000000
     13591       110  PMPE      C23             3.0843162928       17.3487968972      -13.3637520993  MEMB      110             0.0000000000
     13592       110  PMPE      H3R             3.0811059408       17.9235108307      -14.3145489809  MEMB      110             0.0000000000
     13593       110  PMPE      H3S             3.8470892335       17.8338839591      -12.7178502756  MEMB      110             0.0000000000
     13594       110  PMPE      C24             1.7154859829       17.6187533150      -12.6672466579  MEMB      110             0.0000000000
     13595       110  PMPE      H4R             0.8981473544       17.1949439381      -13.2890695325  MEMB      110             0.0000000000
     13596       110  PMPE      H4S             1.5870262805       18.7205098474      -12.6043850980  MEMB      110             0.0000000000
     13597       110  PMPE      C25             1.6982988539       17.0805179022      -11.2432766040  MEMB      110             0.0000000000
     13598       110  PMPE      H5R             1.4343656984       17.8819547596      -10.5205327794  MEMB      110             0.0000000000
     13599       110  PMPE      H5S             2.7569170408       16.8404947341      -11.0065547279  MEMB      110             0.0000000000
     13600       110  PMPE      C26             0.8750545080       15.7823769228      -11.0393074404  MEMB      110             0.0000000000
     13601       110  PMPE      H6R             1.0564951157       15.1716288910      -11.9494651841  MEMB      110             0.0000000000
     13602       110  PMPE      H6S            -0.1827508515       16.1027203292      -11.1522163334  MEMB      110             0.0000000000
     13603       110  PMPE      C27             1.1257949868       14.9559426760       -9.8317079292  MEMB      110             0.0000000000
     13604       110  PMPE      H7R             2.1880007791       14.6308100423       -9.8135796013  MEMB      110             0.0000000000
     13605       110  PMPE      H7S             0.5025778829       14.0420969183       -9.9356649535  MEMB      110             0.0000000000
     13606       110  PMPE      C28             0.6038418905       15.5745376070       -8.5046693015  MEMB      110             0.0000000000
     13607       110  PMPE      H8R             0.3446027873       14.7347900876       -7.8250075719  MEMB      110             0.0000000000
     13608       110  PMPE      H8S            -0.2560879757       16.2773959142       -8.5335099064  MEMB      110             0.0000000000
     13609       110  PMPE      C29             1.7750548848       16.3828813756       -7.8965628861  MEMB      110             0.0000000000
     13610       110  PMPE      H9R             2.1114324444       17.2707793810       -8.4734587557  MEMB      110             0.0000000000
     13611       110  PMPE      C217            2.8035825315       15.4439007526       -7.2830727875  MEMB      110             0.0000000000
     13612       110  PMPE      H17R            3.8441325886       15.7337385789       -7.2047241493  MEMB      110             0.0000000000
     13613       110  PMPE      H17S            2.4666576926       14.4309343602       -7.1006727865  MEMB      110             0.0000000000
     13614       110  PMPE      C210            1.9964113213       16.4732138849       -6.4088442224  MEMB      110             0.0000000000
     13615       110  PMPE      H10R            2.5453743375       17.3853898448       -6.0912030857  MEMB      110             0.0000000000
     13616       110  PMPE      C211            0.8534081839       16.0300798369       -5.6050834276  MEMB      110             0.0000000000
     13617       110  PMPE      H11R            0.6466654230       14.9672894900       -5.8541927068  MEMB      110             0.0000000000
     13618       110  PMPE      H11S           -0.0146588964       16.5915506393       -6.0119390830  MEMB      110             0.0000000000
     13619       110  PMPE      C212            0.9771086565       16.2920284219       -4.0208299434  MEMB      110             0.0000000000
     13620       110  PMPE      H12R            0.0158186733       16.4057322760       -3.4755655577  MEMB      110             0.0000000000
     13621       110  PMPE      H12S            1.4444213148       17.2947889370       -3.9187938934  MEMB      110             0.0000000000
     13622       110  PMPE      C213            1.8706220240       15.1719870285       -3.3770725267  MEMB      110             0.0000000000
     13623       110  PMPE      H13R            2.7974005992       15.0156416578       -3.9694899253  MEMB      110             0.0000000000
     13624       110  PMPE      H13S            1.2755450979       14.2340265985       -3.3979192361  MEMB      110             0.0000000000
     13625       110  PMPE      C214            2.2908058632       15.3536246321       -1.8799619129  MEMB      110             0.0000000000
     13626       110  PMPE      H14R            1.3902038083       15.4135918600       -1.2321662952  MEMB      110             0.0000000000
     13627       110  PMPE      H14S            2.9052478038       16.2789232005       -1.8553720132  MEMB      110             0.0000000000
     13628       110  PMPE      C215            2.9995682830       14.1579233153       -1.3755869671  MEMB      110             0.0000000000
     13629       110  PMPE      H15R            3.5982481208       14.4517261427       -0.4870020706  MEMB      110             0.0000000000
     13630       110  PMPE      H15S            3.6522801141       13.6364310366       -2.1079344879  MEMB      110             0.0000000000
     13631       110  PMPE      C216            2.0453985193       13.1319965146       -0.7540559421  MEMB      110             0.0000000000
     13632       110  PMPE      H16R            2.6114512110       12.4525301502       -0.0815747820  MEMB      110             0.0000000000
     13633       110  PMPE      H16S            1.3287328871       13.6286228732       -0.0655261802  MEMB      110             0.0000000000
     13634       110  PMPE      H16T            1.4881098483       12.5445573608       -1.5147567336  MEMB      110             0.0000000000
     13635       110  PMPE      C33             1.1983691791       11.3735366028      -10.6438906711  MEMB      110             0.0000000000
     13636       110  PMPE      H3X             0.1229966712       11.3339337784      -10.3676186494  MEMB      110             0.0000000000
     13637       110  PMPE      H3Y             1.6307816946       12.3818848530      -10.4690367525  MEMB      110             0.0000000000
     13638       110  PMPE      C34             1.9085725154       10.4320399089       -9.5910570703  MEMB      110             0.0000000000
     13639       110  PMPE      H4X             1.5239538414        9.3897931642       -9.6015652583  MEMB      110             0.0000000000
     13640       110  PMPE      H4Y             1.6867816866       10.8733429031       -8.5958772756  MEMB      110             0.0000000000
     13641       110  PMPE      C35             3.4839212823       10.3320100397       -9.8196256863  MEMB      110             0.0000000000
     13642       110  PMPE      H5X             3.8335438866        9.7319607147      -10.6868201005  MEMB      110             0.0000000000
     13643       110  PMPE      H5Y             3.8980793663        9.7392634284       -8.9761534678  MEMB      110             0.0000000000
     13644       110  PMPE      C36             4.1222964620       11.7071425455       -9.8346522129  MEMB      110             0.0000000000
     13645       110  PMPE      H6X             3.4745170602       12.3275996665       -9.1791090294  MEMB      110             0.0000000000
     13646       110  PMPE      H6Y             3.9607710564       12.1863665583      -10.8238812635  MEMB      110             0.0000000000
     13647       110  PMPE      C37             5.4735022622       11.7776512637       -9.2726615961  MEMB      110             0.0000000000
     13648       110  PMPE      H7X             6.2282912381       11.3066173388       -9.9380506954  MEMB      110             0.0000000000
     13649       110  PMPE      H7Y             5.5864564816       11.2839200227       -8.2838285337  MEMB      110             0.0000000000
     13650       110  PMPE      C38             5.8719408255       13.3070908604       -8.9100479652  MEMB      110             0.0000000000
     13651       110  PMPE      H8X             5.1883648293       13.5867199300       -8.0800774177  MEMB      110             0.0000000000
     13652       110  PMPE      H8Y             5.8350645943       13.9242737100       -9.8331118185  MEMB      110             0.0000000000
     13653       110  PMPE      C39             7.2277293872       13.5774817366       -8.3177696284  MEMB      110             0.0000000000
     13654       110  PMPE      H9X             7.5115959418       14.6300357596       -8.5319445907  MEMB      110             0.0000000000
     13655       110  PMPE      H9Y             7.9662908128       13.0046030281       -8.9183181807  MEMB      110             0.0000000000
     13656       110  PMPE      C310            7.4238055967       13.4738730268       -6.7833286351  MEMB      110             0.0000000000
     13657       110  PMPE      H10X            8.4056623954       13.9678354528       -6.6212185753  MEMB      110             0.0000000000
     13658       110  PMPE      H10Y            7.5331984666       12.4211158615       -6.4456060110  MEMB      110             0.0000000000
     13659       110  PMPE      C311            6.4465200243       14.1730960548       -5.8849374402  MEMB      110             0.0000000000
     13660       110  PMPE      H11X            5.4068363296       13.8024958326       -6.0115637226  MEMB      110             0.0000000000
     13661       110  PMPE      H11Y            6.6055746520       15.2334720340       -6.1758419479  MEMB      110             0.0000000000
     13662       110  PMPE      C312            6.6599693053       14.0370388235       -4.3548950023  MEMB      110             0.0000000000
     13663       110  PMPE      H12X            7.7444323516       14.2753183374       -4.3163780286  MEMB      110             0.0000000000
     13664       110  PMPE      H12Y            6.3872517610       12.9890332862       -4.1066398723  MEMB      110             0.0000000000
     13665       110  PMPE      C313            5.8651869520       15.0174219676       -3.4422316779  MEMB      110             0.0000000000
     13666       110  PMPE      H13X            4.7998083481       14.7058466282       -3.3952172195  MEMB      110             0.0000000000
     13667       110  PMPE      H13Y            5.9919333180       16.0315588648       -3.8778720530  MEMB      110             0.0000000000
     13668       110  PMPE      C314            6.4047974722       15.1929261419       -2.0521349013  MEMB      110             0.0000000000
     13669       110  PMPE      H14X            6.4080556631       14.2501028900       -1.4644323225  MEMB      110             0.0000000000
     13670       110  PMPE      H14Y            5.8040896618       15.9118908492       -1.4550089322  MEMB      110             0.0000000000
     13671       110  PMPE      C315            7.8379996501       15.8598878893       -2.0190419582  MEMB      110             0.0000000000
     13672       110  PMPE      H15X            7.8514144303       16.8207273447       -2.5766522965  MEMB      110             0.0000000000
     13673       110  PMPE      H15Y            8.5104027287       15.1417599639       -2.5352659967  MEMB      110             0.0000000000
     13674       110  PMPE      C316            8.2852541969       16.2606231684       -0.6847919756  MEMB      110             0.0000000000
     13675       110  PMPE      H16X            9.3378448857       16.6148345387       -0.6546610673  MEMB      110             0.0000000000
     13676       110  PMPE      H16Y            8.2300492864       15.3247842905       -0.0885719315  MEMB      110             0.0000000000
     13677       110  PMPE      H16Z            7.6784801146       17.0770475546       -0.2380280399  MEMB      110             0.0000000000
     13678       111  PMPE      N             -15.0667736689       -0.5251370120      -18.8447434992  MEMB      111             0.0000000000
     13679       111  PMPE      HN1           -15.2410897919       -1.0743888036      -17.9789858297  MEMB      111             0.0000000000
     13680       111  PMPE      HN2           -15.9375238050       -0.1255489120      -19.2493708096  MEMB      111             0.0000000000
     13681       111  PMPE      HN3           -14.8031804743       -1.2580088826      -19.5339585859  MEMB      111             0.0000000000
     13682       111  PMPE      C12           -13.9458789305        0.4337920666      -18.7644149359  MEMB      111             0.0000000000
     13683       111  PMPE      H12A          -13.0127096100       -0.1516134169      -18.9086935991  MEMB      111             0.0000000000
     13684       111  PMPE      H12B          -13.9850327871        0.8595945313      -17.7389978348  MEMB      111             0.0000000000
     13685       111  PMPE      C11           -13.9107626709        1.5531206800      -19.8879726334  MEMB      111             0.0000000000
     13686       111  PMPE      H11A          -14.0700363459        1.0492277614      -20.8652364015  MEMB      111             0.0000000000
     13687       111  PMPE      H11B          -12.8456448164        1.8537681523      -19.9852146823  MEMB      111             0.0000000000
     13688       111  PMPE      P             -14.3895407679        3.9161568775      -18.9232350347  MEMB      111             0.0000000000
     13689       111  PMPE      O13           -14.2423435340        5.1091613637      -19.8023866834  MEMB      111             0.0000000000
     13690       111  PMPE      O14           -13.2069769569        3.5098237438      -18.0929556974  MEMB      111             0.0000000000
     13691       111  PMPE      O11           -15.5469564022        4.1289376486      -17.8666796670  MEMB      111             0.0000000000
     13692       111  PMPE      O12           -14.8255886868        2.6425611162      -19.8176118505  MEMB      111             0.0000000000
     13693       111  PMPE      C1            -16.9153759179        3.9133588920      -17.8958024355  MEMB      111             0.0000000000
     13694       111  PMPE      HA            -17.2890325145        3.1468086840      -18.6079138625  MEMB      111             0.0000000000
     13695       111  PMPE      HB            -17.3617094458        4.9172834282      -18.0608569060  MEMB      111             0.0000000000
     13696       111  PMPE      C2            -17.1992886352        3.4579256115      -16.4792799031  MEMB      111             0.0000000000
     13697       111  PMPE      HS            -18.3072325272        3.4213773234      -16.4054879071  MEMB      111             0.0000000000
     13698       111  PMPE      O21           -16.6407315254        4.3066332705      -15.3802796881  MEMB      111             0.0000000000
     13699       111  PMPE      C21           -17.2063868465        5.5088294487      -15.2353441342  MEMB      111             0.0000000000
     13700       111  PMPE      O22           -18.0813022851        5.9832916033      -15.9596304372  MEMB      111             0.0000000000
     13701       111  PMPE      C22           -16.8401895824        6.0495086966      -13.8534978719  MEMB      111             0.0000000000
     13702       111  PMPE      H2R           -15.7380486763        6.1683463248      -13.7794434889  MEMB      111             0.0000000000
     13703       111  PMPE      H2S           -17.2487947850        5.3428046054      -13.0998852133  MEMB      111             0.0000000000
     13704       111  PMPE      C3            -16.6712365381        2.0298062487      -16.3244112045  MEMB      111             0.0000000000
     13705       111  PMPE      HX            -15.6098648542        2.0455723758      -16.6523786535  MEMB      111             0.0000000000
     13706       111  PMPE      HY            -17.2473626595        1.3646895372      -17.0026583838  MEMB      111             0.0000000000
     13707       111  PMPE      O31           -16.8116211024        1.7026095822      -14.9416805323  MEMB      111             0.0000000000
     13708       111  PMPE      C31           -15.8421787411        0.9257162931      -14.4348635475  MEMB      111             0.0000000000
     13709       111  PMPE      O32           -14.9094044279        0.4516309228      -15.0205358247  MEMB      111             0.0000000000
     13710       111  PMPE      C32           -16.1865646508        0.6689019032      -12.9841311409  MEMB      111             0.0000000000
     13711       111  PMPE      H2X           -16.9742899051       -0.1115382150      -12.9154081957  MEMB      111             0.0000000000
     13712       111  PMPE      H2Y           -16.4296515221        1.6725618810      -12.5743795679  MEMB      111             0.0000000000
     13713       111  PMPE      C23           -17.3420187624        7.4856022332      -13.6412127765  MEMB      111             0.0000000000
     13714       111  PMPE      H3R           -18.1922150040        7.7194598480      -14.3170812866  MEMB      111             0.0000000000
     13715       111  PMPE      H3S           -16.6208860373        8.3029082397      -13.8563858818  MEMB      111             0.0000000000
     13716       111  PMPE      C24           -17.9069174200        7.6061944366      -12.1779919581  MEMB      111             0.0000000000
     13717       111  PMPE      H4R           -18.8499839251        7.0189595028      -12.1679147258  MEMB      111             0.0000000000
     13718       111  PMPE      H4S           -18.3389841647        8.6268502214      -12.1011694163  MEMB      111             0.0000000000
     13719       111  PMPE      C25           -16.9609505056        7.3602726826      -11.0780861616  MEMB      111             0.0000000000
     13720       111  PMPE      H5R           -16.1786126817        8.1482146603      -11.0404571605  MEMB      111             0.0000000000
     13721       111  PMPE      H5S           -16.4155167727        6.4067147129      -11.2440686534  MEMB      111             0.0000000000
     13722       111  PMPE      C26           -17.5827128457        7.3488803549       -9.6343235074  MEMB      111             0.0000000000
     13723       111  PMPE      H6R           -18.5085090391        7.9569611563       -9.5479524122  MEMB      111             0.0000000000
     13724       111  PMPE      H6S           -16.8091207712        7.8318529139       -8.9998050082  MEMB      111             0.0000000000
     13725       111  PMPE      C27           -17.7509922184        5.8849714706       -9.1414059680  MEMB      111             0.0000000000
     13726       111  PMPE      H7R           -16.8686723566        5.3470276556       -9.5493874645  MEMB      111             0.0000000000
     13727       111  PMPE      H7S           -18.5726098871        5.3758329874       -9.6891677176  MEMB      111             0.0000000000
     13728       111  PMPE      C28           -17.8331463326        5.5778160047       -7.5485514497  MEMB      111             0.0000000000
     13729       111  PMPE      H8R           -16.8716617822        5.9735898874       -7.1571027538  MEMB      111             0.0000000000
     13730       111  PMPE      H8S           -17.9308400772        4.4758215677       -7.4466441533  MEMB      111             0.0000000000
     13731       111  PMPE      C29           -19.0059963636        6.2822523454       -6.7554232521  MEMB      111             0.0000000000
     13732       111  PMPE      H9R           -20.0473838571        5.8955685799       -6.7378469165  MEMB      111             0.0000000000
     13733       111  PMPE      C217          -18.9574406293        7.8255941482       -6.9015578516  MEMB      111             0.0000000000
     13734       111  PMPE      H17R          -19.9520528233        8.2131622217       -7.0843867505  MEMB      111             0.0000000000
     13735       111  PMPE      H17S          -18.0441677709        8.2411195737       -7.3091854850  MEMB      111             0.0000000000
     13736       111  PMPE      C210          -18.6588264240        7.1450732390       -5.5860083285  MEMB      111             0.0000000000
     13737       111  PMPE      H10R          -19.5149217099        7.3967620547       -4.9241366207  MEMB      111             0.0000000000
     13738       111  PMPE      C211          -17.2132023988        7.3522701644       -4.9686268967  MEMB      111             0.0000000000
     13739       111  PMPE      H11R          -17.3625065740        8.2793671603       -4.3748925723  MEMB      111             0.0000000000
     13740       111  PMPE      H11S          -16.5589437294        7.4895240520       -5.8559982491  MEMB      111             0.0000000000
     13741       111  PMPE      C212          -16.5879312617        6.2158564556       -4.1616637080  MEMB      111             0.0000000000
     13742       111  PMPE      H12R          -16.2595152274        5.4703708179       -4.9171204889  MEMB      111             0.0000000000
     13743       111  PMPE      H12S          -17.3764907143        5.8485521814       -3.4705904211  MEMB      111             0.0000000000
     13744       111  PMPE      C213          -15.4846028170        6.6376118817       -3.2025922276  MEMB      111             0.0000000000
     13745       111  PMPE      H13R          -14.8540972742        7.2768198998       -3.8569604497  MEMB      111             0.0000000000
     13746       111  PMPE      H13S          -15.0048922102        5.6646123548       -2.9628621046  MEMB      111             0.0000000000
     13747       111  PMPE      C214          -15.9059409478        7.5405079738       -2.0081394130  MEMB      111             0.0000000000
     13748       111  PMPE      H14R          -16.7869701795        7.0644301133       -1.5270382623  MEMB      111             0.0000000000
     13749       111  PMPE      H14S          -16.1647887074        8.5497375717       -2.3938525543  MEMB      111             0.0000000000
     13750       111  PMPE      C215          -14.6379532871        7.7549092773       -1.0728300018  MEMB      111             0.0000000000
     13751       111  PMPE      H15R          -15.0347710911        8.4065231943       -0.2652070051  MEMB      111             0.0000000000
     13752       111  PMPE      H15S          -13.9035643295        8.2745097944       -1.7247571812  MEMB      111             0.0000000000
     13753       111  PMPE      C216          -14.0549168277        6.4920653159       -0.4084177712  MEMB      111             0.0000000000
     13754       111  PMPE      H16R          -13.3627277434        5.9804205384       -1.1108531241  MEMB      111             0.0000000000
     13755       111  PMPE      H16S          -13.4595538434        6.6445632513        0.5171131025  MEMB      111             0.0000000000
     13756       111  PMPE      H16T          -14.8259400964        5.7197151489       -0.2002855284  MEMB      111             0.0000000000
     13757       111  PMPE      C33           -14.9364528160        0.1372671052      -12.1914011847  MEMB      111             0.0000000000
     13758       111  PMPE      H3X           -14.1100322056        0.8653906952      -12.3369557753  MEMB      111             0.0000000000
     13759       111  PMPE      H3Y           -14.6910151809       -0.8173203715      -12.7040843791  MEMB      111             0.0000000000
     13760       111  PMPE      C34           -15.0615030044       -0.2236412610      -10.7196872653  MEMB      111             0.0000000000
     13761       111  PMPE      H4X           -14.1401473776       -0.7561746544      -10.4005751219  MEMB      111             0.0000000000
     13762       111  PMPE      H4Y           -15.8570404968       -0.9636360832      -10.4876344769  MEMB      111             0.0000000000
     13763       111  PMPE      C35           -15.3620432510        0.9665236002       -9.7780860390  MEMB      111             0.0000000000
     13764       111  PMPE      H5X           -15.1983381566        0.5599423397       -8.7571979485  MEMB      111             0.0000000000
     13765       111  PMPE      H5Y           -16.4519346026        1.1819920088       -9.7725098129  MEMB      111             0.0000000000
     13766       111  PMPE      C36           -14.4274679503        2.1559276787       -9.8663082994  MEMB      111             0.0000000000
     13767       111  PMPE      H6X           -14.6475155049        2.5669613443      -10.8747484496  MEMB      111             0.0000000000
     13768       111  PMPE      H6Y           -13.3772489683        1.8001780483       -9.7970027302  MEMB      111             0.0000000000
     13769       111  PMPE      C37           -14.5364592480        3.1028204902       -8.7726731806  MEMB      111             0.0000000000
     13770       111  PMPE      H7X           -14.3201153939        2.6646687566       -7.7749061840  MEMB      111             0.0000000000
     13771       111  PMPE      H7Y           -15.5924502760        3.4451076986       -8.8178763741  MEMB      111             0.0000000000
     13772       111  PMPE      C38           -13.6222157870        4.3113952146       -8.9693345943  MEMB      111             0.0000000000
     13773       111  PMPE      H8X           -13.8262950009        4.8422020989       -9.9237544847  MEMB      111             0.0000000000
     13774       111  PMPE      H8Y           -12.5856158152        3.9116703763       -8.9680289116  MEMB      111             0.0000000000
     13775       111  PMPE      C39           -13.7786332266        5.5190980255       -7.9822715257  MEMB      111             0.0000000000
     13776       111  PMPE      H9X           -14.6452175742        6.1368940956       -8.3011450472  MEMB      111             0.0000000000
     13777       111  PMPE      H9Y           -12.9254943381        6.2079702809       -8.1609611700  MEMB      111             0.0000000000
     13778       111  PMPE      C310          -13.7661054515        5.1489064009       -6.5319730722  MEMB      111             0.0000000000
     13779       111  PMPE      H10X          -14.5460885737        4.3624663083       -6.4456058185  MEMB      111             0.0000000000
     13780       111  PMPE      H10Y          -14.2054176764        5.9676012080       -5.9228222677  MEMB      111             0.0000000000
     13781       111  PMPE      C311          -12.3451481724        4.7036915825       -5.9639069719  MEMB      111             0.0000000000
     13782       111  PMPE      H11X          -11.6136262108        5.5384347861       -6.0129005918  MEMB      111             0.0000000000
     13783       111  PMPE      H11Y          -12.0370766181        3.8436018154       -6.5960922286  MEMB      111             0.0000000000
     13784       111  PMPE      C312          -12.3269816370        4.2218113364       -4.4856932352  MEMB      111             0.0000000000
     13785       111  PMPE      H12X          -12.4226299276        5.0678875898       -3.7720221916  MEMB      111             0.0000000000
     13786       111  PMPE      H12Y          -11.2961823594        3.8949178107       -4.2309096468  MEMB      111             0.0000000000
     13787       111  PMPE      C313          -13.2977538928        3.1212292545       -4.0641515990  MEMB      111             0.0000000000
     13788       111  PMPE      H13X          -13.0402407085        2.2697365223       -4.7297099355  MEMB      111             0.0000000000
     13789       111  PMPE      H13Y          -14.2917630110        3.4918973343       -4.3941091796  MEMB      111             0.0000000000
     13790       111  PMPE      C314          -13.2436753040        2.8412788865       -2.5354057642  MEMB      111             0.0000000000
     13791       111  PMPE      H14X          -13.7470614838        3.7564579966       -2.1567608097  MEMB      111             0.0000000000
     13792       111  PMPE      H14Y          -12.2693877374        2.7584187012       -2.0079413759  MEMB      111             0.0000000000
     13793       111  PMPE      C315          -14.1634299267        1.7543151506       -1.9822609012  MEMB      111             0.0000000000
     13794       111  PMPE      H15X          -13.6974613947        1.3515351320       -1.0576197665  MEMB      111             0.0000000000
     13795       111  PMPE      H15Y          -14.3649493880        0.9149247864       -2.6816435894  MEMB      111             0.0000000000
     13796       111  PMPE      C316          -15.5375768477        2.2888506363       -1.6226413793  MEMB      111             0.0000000000
     13797       111  PMPE      H16X          -15.4321320049        3.0361035332       -0.8072784707  MEMB      111             0.0000000000
     13798       111  PMPE      H16Y          -16.1823269219        1.4329389554       -1.3293267936  MEMB      111             0.0000000000
     13799       111  PMPE      H16Z          -15.9370507021        2.7753672191       -2.5380876103  MEMB      111             0.0000000000
     13800       112  QMPE      N              12.0743736609       -7.1621366505      -20.4598031989  MEMB      112             0.0000000000
     13801       112  QMPE      HN1            12.2066866618       -6.2215730488      -20.0362074582  MEMB      112             0.0000000000
     13802       112  QMPE      HN2            12.1247131941       -7.0049769041      -21.4866267843  MEMB      112             0.0000000000
     13803       112  QMPE      HN3            11.1689032721       -7.5437737566      -20.1191034508  MEMB      112             0.0000000000
     13804       112  QMPE      C12            13.2970678945       -7.9150732200      -20.1488543776  MEMB      112             0.0000000000
     13805       112  QMPE      H12A           14.0723792472       -7.6122884424      -20.8847447186  MEMB      112             0.0000000000
     13806       112  QMPE      H12B           13.0407833487       -8.9802268038      -20.3334818280  MEMB      112             0.0000000000
     13807       112  QMPE      C11            13.7192359571       -8.0297405629      -18.6888077722  MEMB      112             0.0000000000
     13808       112  QMPE      H11A           14.6700206900       -8.5721264088      -18.4986844198  MEMB      112             0.0000000000
     13809       112  QMPE      H11B           12.8551790754       -8.5491178264      -18.2219310636  MEMB      112             0.0000000000
     13810       112  QMPE      P              14.7995757350       -5.6467397797      -18.6228415154  MEMB      112             0.0000000000
     13811       112  QMPE      O13            13.9383934512       -4.5497349181      -19.2317368243  MEMB      112             0.0000000000
     13812       112  QMPE      O14            15.8458620630       -6.2931776834      -19.5084267499  MEMB      112             0.0000000000
     13813       112  QMPE      O11            15.4554997137       -5.1912214121      -17.2556474205  MEMB      112             0.0000000000
     13814       112  QMPE      O12            13.8288611220       -6.7442730486      -18.0838821388  MEMB      112             0.0000000000
     13815       112  QMPE      C1             16.4959174421       -5.8016756456      -16.4429223639  MEMB      112             0.0000000000
     13816       112  QMPE      HA             16.8475626021       -5.0620988278      -15.6921275404  MEMB      112             0.0000000000
     13817       112  QMPE      HB             17.4009860534       -5.9954777208      -17.0574241119  MEMB      112             0.0000000000
     13818       112  QMPE      C2             15.9879628859       -7.0787783357      -15.7304444850  MEMB      112             0.0000000000
     13819       112  QMPE      HS             15.8214039527       -8.0162810556      -16.3028669487  MEMB      112             0.0000000000
     13820       112  QMPE      O21            14.7009364938       -6.6295939565      -15.1628234147  MEMB      112             0.0000000000
     13821       112  QMPE      C21            13.6567961784       -7.5329041452      -15.2062164276  MEMB      112             0.0000000000
     13822       112  QMPE      O22            13.7402953353       -8.6872637261      -15.4585744773  MEMB      112             0.0000000000
     13823       112  QMPE      C22            12.3546672901       -6.7582546603      -15.0058596108  MEMB      112             0.0000000000
     13824       112  QMPE      H2R            11.8275502881       -6.3596590687      -15.8989387006  MEMB      112             0.0000000000
     13825       112  QMPE      H2S            12.5187337701       -5.8616446490      -14.3706478937  MEMB      112             0.0000000000
     13826       112  QMPE      C3             16.9835812863       -7.4286164940      -14.6139740600  MEMB      112             0.0000000000
     13827       112  QMPE      HX             17.9652685909       -7.4921238590      -15.1302859536  MEMB      112             0.0000000000
     13828       112  QMPE      HY             16.8093878490       -8.4500285720      -14.2131063279  MEMB      112             0.0000000000
     13829       112  QMPE      O31            16.8896226494       -6.5183808442      -13.4874517680  MEMB      112             0.0000000000
     13830       112  QMPE      C31            16.1005133404       -6.6685820991      -12.5129747519  MEMB      112             0.0000000000
     13831       112  QMPE      O32            15.4512129070       -7.7153557362      -12.2260643606  MEMB      112             0.0000000000
     13832       112  QMPE      C32            16.2121687097       -5.4746868762      -11.5869812160  MEMB      112             0.0000000000
     13833       112  QMPE      H2X            17.1094115328       -5.6004474522      -10.9439722195  MEMB      112             0.0000000000
     13834       112  QMPE      H2Y            16.3666113352       -4.5403069161      -12.1678448478  MEMB      112             0.0000000000
     13835       112  QMPE      C23            11.3440680776       -7.6886271593      -14.2519741031  MEMB      112             0.0000000000
     13836       112  QMPE      H3R            11.1920408238       -8.5800694695      -14.8973728170  MEMB      112             0.0000000000
     13837       112  QMPE      H3S            10.3947224301       -7.1594833781      -14.0216040473  MEMB      112             0.0000000000
     13838       112  QMPE      C24            11.8644060472       -8.1866379731      -12.8663426842  MEMB      112             0.0000000000
     13839       112  QMPE      H4R            12.1621391103       -7.2299583290      -12.3863010023  MEMB      112             0.0000000000
     13840       112  QMPE      H4S            12.7949098620       -8.7780665968      -13.0030755026  MEMB      112             0.0000000000
     13841       112  QMPE      C25            10.7773829053       -8.9216505508      -12.0171113003  MEMB      112             0.0000000000
     13842       112  QMPE      H5R            10.2122753228       -9.5811810766      -12.7099271827  MEMB      112             0.0000000000
     13843       112  QMPE      H5S            10.0641749426       -8.1562835559      -11.6431210112  MEMB      112             0.0000000000
     13844       112  QMPE      C26            11.3116642033       -9.6820601496      -10.8179983286  MEMB      112             0.0000000000
     13845       112  QMPE      H6R            11.9726801378      -10.5083251491      -11.1566206599  MEMB      112             0.0000000000
     13846       112  QMPE      H6S            10.4040721071      -10.1449707460      -10.3749278594  MEMB      112             0.0000000000
     13847       112  QMPE      C27            11.9443762041       -8.7952996851       -9.7332359311  MEMB      112             0.0000000000
     13848       112  QMPE      H7R            11.2836468474       -7.9308337385       -9.5086111011  MEMB      112             0.0000000000
     13849       112  QMPE      H7S            12.9313360285       -8.4261453797      -10.0853103431  MEMB      112             0.0000000000
     13850       112  QMPE      C28            12.1555069134       -9.4893316021       -8.3981819997  MEMB      112             0.0000000000
     13851       112  QMPE      H8R            12.6912867303       -8.7359378943       -7.7820172035  MEMB      112             0.0000000000
     13852       112  QMPE      H8S            12.8476895485      -10.3514094098       -8.5078454593  MEMB      112             0.0000000000
     13853       112  QMPE      C29            10.9289470263       -9.8627600859       -7.6291328330  MEMB      112             0.0000000000
     13854       112  QMPE      H9R            10.1139668180      -10.4488081506       -8.1052383418  MEMB      112             0.0000000000
     13855       112  QMPE      C217           10.4525785426       -8.9487321227       -6.5241755979  MEMB      112             0.0000000000
     13856       112  QMPE      H17R           11.0382102258       -8.0547357420       -6.6993763309  MEMB      112             0.0000000000
     13857       112  QMPE      H17S            9.3727839508       -8.9865807434       -6.4500127345  MEMB      112             0.0000000000
     13858       112  QMPE      C210           11.1366619240      -10.2552335706       -6.1600053641  MEMB      112             0.0000000000
     13859       112  QMPE      H10R           10.4173533780      -11.0721452684       -5.9373576514  MEMB      112             0.0000000000
     13860       112  QMPE      C211           12.4429589166      -10.1194466174       -5.3969369977  MEMB      112             0.0000000000
     13861       112  QMPE      H11R           13.1260060347       -9.2645395875       -5.5890350455  MEMB      112             0.0000000000
     13862       112  QMPE      H11S           12.1360100730      -10.2194800196       -4.3338767175  MEMB      112             0.0000000000
     13863       112  QMPE      C212           13.2869222261      -11.3671395273       -5.5420639196  MEMB      112             0.0000000000
     13864       112  QMPE      H12R           13.6234266099      -11.4952800329       -6.5930943962  MEMB      112             0.0000000000
     13865       112  QMPE      H12S           12.8130478661      -12.3388741102       -5.2861411581  MEMB      112             0.0000000000
     13866       112  QMPE      C213           14.5009654572      -11.1957461062       -4.6460910587  MEMB      112             0.0000000000
     13867       112  QMPE      H13R           15.1529364312      -10.3252501548       -4.8730087137  MEMB      112             0.0000000000
     13868       112  QMPE      H13S           15.2389938929      -11.9999961573       -4.8530136661  MEMB      112             0.0000000000
     13869       112  QMPE      C214           14.2328522685      -11.2459481743       -3.1350101435  MEMB      112             0.0000000000
     13870       112  QMPE      H14R           13.6849524615      -12.1853907278       -2.9079085841  MEMB      112             0.0000000000
     13871       112  QMPE      H14S           13.5660419216      -10.3687073682       -2.9931174968  MEMB      112             0.0000000000
     13872       112  QMPE      C215           15.3994246221      -10.9666082090       -2.1957515862  MEMB      112             0.0000000000
     13873       112  QMPE      H15R           16.0986579639      -11.8184924366       -2.3360633543  MEMB      112             0.0000000000
     13874       112  QMPE      H15S           14.9805416802      -11.1118258723       -1.1770430954  MEMB      112             0.0000000000
     13875       112  QMPE      C216           16.2147326826       -9.6766066648       -2.3119180588  MEMB      112             0.0000000000
     13876       112  QMPE      H16R           16.9006648059       -9.6638863226       -3.1857917848  MEMB      112             0.0000000000
     13877       112  QMPE      H16S           16.7049798471       -9.4714848954       -1.3362611122  MEMB      112             0.0000000000
     13878       112  QMPE      H16T           15.5764816155       -8.7789743978       -2.4575647800  MEMB      112             0.0000000000
     13879       112  QMPE      C33            14.8832975562       -5.2956660946      -10.8253104409  MEMB      112             0.0000000000
     13880       112  QMPE      H3X            14.6535498066       -6.2417224341      -10.2900400162  MEMB      112             0.0000000000
     13881       112  QMPE      H3Y            14.0015577215       -4.9644337029      -11.4144972528  MEMB      112             0.0000000000
     13882       112  QMPE      C34            15.1065972632       -4.2853624291       -9.7392209473  MEMB      112             0.0000000000
     13883       112  QMPE      H4X            15.3049374194       -3.2962936652      -10.2047597101  MEMB      112             0.0000000000
     13884       112  QMPE      H4Y            15.9852985777       -4.5012940512       -9.0945673492  MEMB      112             0.0000000000
     13885       112  QMPE      C35            13.9015086065       -4.0068321030       -8.7406557282  MEMB      112             0.0000000000
     13886       112  QMPE      H5X            12.9958368150       -3.8998627198       -9.3751921339  MEMB      112             0.0000000000
     13887       112  QMPE      H5Y            14.0662908318       -2.9718355638       -8.3719413192  MEMB      112             0.0000000000
     13888       112  QMPE      C36            13.6528843637       -5.1302727840       -7.7904555405  MEMB      112             0.0000000000
     13889       112  QMPE      H6X            14.4838237388       -5.3840110263       -7.0980119200  MEMB      112             0.0000000000
     13890       112  QMPE      H6Y            13.4278662344       -6.0561205486       -8.3618520100  MEMB      112             0.0000000000
     13891       112  QMPE      C37            12.4626723489       -4.7957937499       -6.8020286190  MEMB      112             0.0000000000
     13892       112  QMPE      H7X            11.9950187967       -3.8255721109       -7.0745931056  MEMB      112             0.0000000000
     13893       112  QMPE      H7Y            11.7400150199       -5.6311871056       -6.9212146427  MEMB      112             0.0000000000
     13894       112  QMPE      C38            13.0034619050       -4.7768436301       -5.3942614988  MEMB      112             0.0000000000
     13895       112  QMPE      H8X            13.2954609711       -5.8350675565       -5.2233252506  MEMB      112             0.0000000000
     13896       112  QMPE      H8Y            13.9017397737       -4.1322045489       -5.2853656688  MEMB      112             0.0000000000
     13897       112  QMPE      C39            11.9940523852       -4.3021617866       -4.2474278451  MEMB      112             0.0000000000
     13898       112  QMPE      H9X            11.0526397894       -4.8910650169       -4.2828728158  MEMB      112             0.0000000000
     13899       112  QMPE      H9Y            11.7381700769       -3.2369582906       -4.4323244449  MEMB      112             0.0000000000
     13900       112  QMPE      C310           12.5528535489       -4.2605534868       -2.8457939154  MEMB      112             0.0000000000
     13901       112  QMPE      H10X           11.6728154168       -3.8568654925       -2.3009176119  MEMB      112             0.0000000000
     13902       112  QMPE      H10Y           13.4450620904       -3.6060231503       -2.7464222222  MEMB      112             0.0000000000
     13903       112  QMPE      C311           12.9207229630       -5.5908883085       -2.2386595279  MEMB      112             0.0000000000
     13904       112  QMPE      H11X           13.1307201014       -5.4347082373       -1.1589238804  MEMB      112             0.0000000000
     13905       112  QMPE      H11Y           13.8448081433       -6.0359163657       -2.6656697991  MEMB      112             0.0000000000
     13906       112  QMPE      C312           11.8830231063       -6.6815367687       -2.4572517372  MEMB      112             0.0000000000
     13907       112  QMPE      H12X           12.1024829367       -6.9612098987       -3.5098404518  MEMB      112             0.0000000000
     13908       112  QMPE      H12Y           10.9180826630       -6.1760373922       -2.2388926955  MEMB      112             0.0000000000
     13909       112  QMPE      C313           11.9729505687       -7.9060618561       -1.6829817215  MEMB      112             0.0000000000
     13910       112  QMPE      H13X           12.9609907243       -8.4139224036       -1.6962211018  MEMB      112             0.0000000000
     13911       112  QMPE      H13Y           11.7784212012       -7.6920671595       -0.6102813754  MEMB      112             0.0000000000
     13912       112  QMPE      C314           10.9624606638       -8.9638002398       -2.1532275728  MEMB      112             0.0000000000
     13913       112  QMPE      H14X           11.3282120980       -9.9687409257       -1.8521628559  MEMB      112             0.0000000000
     13914       112  QMPE      H14Y           10.8930611163       -8.9616838317       -3.2620566176  MEMB      112             0.0000000000
     13915       112  QMPE      C315            9.5540978939       -8.7776204347       -1.4776582701  MEMB      112             0.0000000000
     13916       112  QMPE      H15X            8.8402143743       -9.4706958545       -1.9719636451  MEMB      112             0.0000000000
     13917       112  QMPE      H15Y            9.6251996660       -8.9370626464       -0.3804597738  MEMB      112             0.0000000000
     13918       112  QMPE      H15Z            9.1781627283       -7.7599904644       -1.7172890132  MEMB      112             0.0000000000
     13919       113  PMPG      C13           -12.8292284375        9.6483416681      -17.0655561613  MEMB      113             0.0000000000
     13920       113  PMPG      H13A          -11.7411497255        9.4240205399      -17.0562998685  MEMB      113             0.0000000000
     13921       113  PMPG      H13B          -12.9611962608       10.6249798432      -16.5526397267  MEMB      113             0.0000000000
     13922       113  PMPG      OC3           -13.5593042562        8.5461825932      -16.4954196358  MEMB      113             0.0000000000
     13923       113  PMPG      HO3           -12.9682928011        7.8168813510      -16.6964798846  MEMB      113             0.0000000000
     13924       113  PMPG      C12           -13.1424414812        9.9078692810      -18.5705044729  MEMB      113             0.0000000000
     13925       113  PMPG      H12A          -14.2311374745       10.1349074557      -18.6477944556  MEMB      113             0.0000000000
     13926       113  PMPG      OC2           -12.8821195521        8.7312812011      -19.3372598927  MEMB      113             0.0000000000
     13927       113  PMPG      HO2           -12.9789750455        9.0449121996      -20.2629874175  MEMB      113             0.0000000000
     13928       113  PMPG      C11           -12.3656587395       11.0864505095      -19.1012306169  MEMB      113             0.0000000000
     13929       113  PMPG      H11A          -12.5842005957       12.0337651058      -18.5634987341  MEMB      113             0.0000000000
     13930       113  PMPG      H11B          -12.6133154182       11.0976422155      -20.1842181379  MEMB      113             0.0000000000
     13931       113  PMPG      P              -9.9123142904       11.6223723055      -19.9404910893  MEMB      113             0.0000000000
     13932       113  PMPG      O13           -10.0188933255       10.8508978700      -21.2135209469  MEMB      113             0.0000000000
     13933       113  PMPG      O14            -8.5904361150       11.5301124464      -19.2921114998  MEMB      113             0.0000000000
     13934       113  PMPG      O11           -10.4353994324       13.0544354879      -20.0416353717  MEMB      113             0.0000000000
     13935       113  PMPG      O12           -10.9347943645       11.0042866915      -18.9422702910  MEMB      113             0.0000000000
     13936       113  PMPG      C1             -9.8146250806       14.1407437343      -19.3448373917  MEMB      113             0.0000000000
     13937       113  PMPG      HA             -9.9111387974       14.9797422696      -20.0667013164  MEMB      113             0.0000000000
     13938       113  PMPG      HB             -8.7169514558       14.0289633588      -19.2146881131  MEMB      113             0.0000000000
     13939       113  PMPG      C2            -10.5037801707       14.5438926887      -17.9655089330  MEMB      113             0.0000000000
     13940       113  PMPG      HS             -9.9954683684       15.4133034093      -17.4963975868  MEMB      113             0.0000000000
     13941       113  PMPG      O21           -10.4427317739       13.5458736955      -17.0162313496  MEMB      113             0.0000000000
     13942       113  PMPG      C21            -9.2139269603       13.3975079915      -16.4535206324  MEMB      113             0.0000000000
     13943       113  PMPG      O22            -8.2670341046       14.0616623980      -16.7111607838  MEMB      113             0.0000000000
     13944       113  PMPG      C22            -9.2845292002       12.3610071552      -15.3050365450  MEMB      113             0.0000000000
     13945       113  PMPG      H2R            -9.2717352655       11.3860903433      -15.8376662561  MEMB      113             0.0000000000
     13946       113  PMPG      H2S           -10.2097177589       12.5487298729      -14.7192830098  MEMB      113             0.0000000000
     13947       113  PMPG      C3            -12.0024424252       14.9675103054      -18.1464377069  MEMB      113             0.0000000000
     13948       113  PMPG      HX            -12.4758458674       14.2929025221      -18.8914979192  MEMB      113             0.0000000000
     13949       113  PMPG      HY            -11.8829034379       15.9569296905      -18.6374374415  MEMB      113             0.0000000000
     13950       113  PMPG      O31           -12.6678686170       15.1663996906      -16.8842105622  MEMB      113             0.0000000000
     13951       113  PMPG      C31           -13.5686438801       14.2645424427      -16.5659954843  MEMB      113             0.0000000000
     13952       113  PMPG      O32           -14.0831426140       13.5229861611      -17.4080345172  MEMB      113             0.0000000000
     13953       113  PMPG      C32           -13.9213458657       14.2250350139      -15.1241043070  MEMB      113             0.0000000000
     13954       113  PMPG      H2X           -14.9981947244       14.4686371247      -15.0001064138  MEMB      113             0.0000000000
     13955       113  PMPG      H2Y           -13.2907279286       14.7363218603      -14.3656666485  MEMB      113             0.0000000000
     13956       113  PMPG      C23            -8.0646392057       12.5931653429      -14.4055646938  MEMB      113             0.0000000000
     13957       113  PMPG      H3R            -7.9910392809       13.6854061242      -14.2160552057  MEMB      113             0.0000000000
     13958       113  PMPG      H3S            -7.1036876189       12.2966679051      -14.8777745571  MEMB      113             0.0000000000
     13959       113  PMPG      C24            -8.2317517659       11.9312269822      -13.0143636569  MEMB      113             0.0000000000
     13960       113  PMPG      H4R            -8.7515509384       10.9501503166      -13.0545907397  MEMB      113             0.0000000000
     13961       113  PMPG      H4S            -8.8061053060       12.6967660433      -12.4501042322  MEMB      113             0.0000000000
     13962       113  PMPG      C25            -6.8184171782       11.6607813554      -12.4089193451  MEMB      113             0.0000000000
     13963       113  PMPG      H5R            -6.1045942764       12.4817077195      -12.6344357251  MEMB      113             0.0000000000
     13964       113  PMPG      H5S            -6.4471400766       10.7440797161      -12.9150147326  MEMB      113             0.0000000000
     13965       113  PMPG      C26            -6.9345984765       11.3793251808      -10.9276798576  MEMB      113             0.0000000000
     13966       113  PMPG      H6R            -5.9349393403       10.9829537188      -10.6485870844  MEMB      113             0.0000000000
     13967       113  PMPG      H6S            -7.6938244956       10.5820213403      -10.7786720590  MEMB      113             0.0000000000
     13968       113  PMPG      C27            -7.0888389219       12.6852416697      -10.1239951596  MEMB      113             0.0000000000
     13969       113  PMPG      H7R            -8.1457845785       12.9479013565      -10.3435330700  MEMB      113             0.0000000000
     13970       113  PMPG      H7S            -6.2926078850       13.3021480388      -10.5927848004  MEMB      113             0.0000000000
     13971       113  PMPG      C28            -6.9552970348       12.5196475355       -8.5180623814  MEMB      113             0.0000000000
     13972       113  PMPG      H8R            -6.8014404430       13.5332305803       -8.0899277257  MEMB      113             0.0000000000
     13973       113  PMPG      H8S            -6.0483730963       11.8967148644       -8.3639040382  MEMB      113             0.0000000000
     13974       113  PMPG      C29            -8.1418172399       11.9128146520       -7.8174977596  MEMB      113             0.0000000000
     13975       113  PMPG      H9R            -9.1362587036       12.2509655059       -8.1795219765  MEMB      113             0.0000000000
     13976       113  PMPG      C217           -8.0200485601       10.4941923652       -7.3837663958  MEMB      113             0.0000000000
     13977       113  PMPG      H17R           -8.9693228324       10.0243089530       -7.6095481452  MEMB      113             0.0000000000
     13978       113  PMPG      H17S           -7.0457888239       10.0306203363       -7.4776158429  MEMB      113             0.0000000000
     13979       113  PMPG      C210           -8.1332010133       11.5838492584       -6.3627094825  MEMB      113             0.0000000000
     13980       113  PMPG      H10R           -9.0924020403       11.6722190448       -5.8091349252  MEMB      113             0.0000000000
     13981       113  PMPG      C211           -6.8784645353       11.8261171643       -5.5267071019  MEMB      113             0.0000000000
     13982       113  PMPG      H11R           -5.9634732662       11.6370761578       -6.1278521730  MEMB      113             0.0000000000
     13983       113  PMPG      H11S           -6.9633294998       12.8939703497       -5.2320739576  MEMB      113             0.0000000000
     13984       113  PMPG      C212           -6.9774392034       10.9415171999       -4.2699458701  MEMB      113             0.0000000000
     13985       113  PMPG      H12R           -7.0888003484        9.8445354367       -4.4061471275  MEMB      113             0.0000000000
     13986       113  PMPG      H12S           -7.8667660249       11.2394752120       -3.6744298304  MEMB      113             0.0000000000
     13987       113  PMPG      C213           -5.7052488144       11.1144569168       -3.3333537073  MEMB      113             0.0000000000
     13988       113  PMPG      H13R           -5.7108180704       12.2195523899       -3.2190978198  MEMB      113             0.0000000000
     13989       113  PMPG      H13S           -4.7795107881       10.7507977654       -3.8284107495  MEMB      113             0.0000000000
     13990       113  PMPG      C214           -5.7435837822       10.4491128078       -1.9706105193  MEMB      113             0.0000000000
     13991       113  PMPG      H14R           -4.7537394961       10.4531666865       -1.4661180754  MEMB      113             0.0000000000
     13992       113  PMPG      H14S           -5.7849422894        9.3750428985       -2.2516515192  MEMB      113             0.0000000000
     13993       113  PMPG      C215           -6.7361428336       10.9910917727       -0.9179029620  MEMB      113             0.0000000000
     13994       113  PMPG      H15R           -7.7939891216       10.8767502929       -1.2376018376  MEMB      113             0.0000000000
     13995       113  PMPG      H15S           -6.4088536947       12.0203321566       -0.6573895831  MEMB      113             0.0000000000
     13996       113  PMPG      C216           -6.6333314785       10.1417301278        0.4062550429  MEMB      113             0.0000000000
     13997       113  PMPG      H16R           -7.0902429867       10.5441050534        1.3355819488  MEMB      113             0.0000000000
     13998       113  PMPG      H16S           -5.6080726646       10.0052154157        0.8118777434  MEMB      113             0.0000000000
     13999       113  PMPG      H16T           -7.1507316948        9.1931754687        0.1476791751  MEMB      113             0.0000000000
     14000       113  PMPG      C33           -13.5649166810       12.8259716525      -14.6390108417  MEMB      113             0.0000000000
     14001       113  PMPG      H3X           -12.4690197187       12.7696285456      -14.8126662104  MEMB      113             0.0000000000
     14002       113  PMPG      H3Y           -13.9757688109       11.9667655518      -15.2111004647  MEMB      113             0.0000000000
     14003       113  PMPG      C34           -13.6508811025       12.6614401316      -13.1381005011  MEMB      113             0.0000000000
     14004       113  PMPG      H4X           -14.7299302856       12.5978739419      -12.8813259961  MEMB      113             0.0000000000
     14005       113  PMPG      H4Y           -13.0917810978       13.4150474247      -12.5432865092  MEMB      113             0.0000000000
     14006       113  PMPG      C35           -13.0275612146       11.2756486895      -12.7955922093  MEMB      113             0.0000000000
     14007       113  PMPG      H5X           -11.9731024510       11.2660901989      -13.1453726426  MEMB      113             0.0000000000
     14008       113  PMPG      H5Y           -13.5011333482       10.4077085602      -13.3022775726  MEMB      113             0.0000000000
     14009       113  PMPG      C36           -12.9485506779       11.0385630867      -11.2867540476  MEMB      113             0.0000000000
     14010       113  PMPG      H6X           -13.8261919379       10.4614725311      -10.9247687023  MEMB      113             0.0000000000
     14011       113  PMPG      H6Y           -13.0434187328       12.0649968514      -10.8723210849  MEMB      113             0.0000000000
     14012       113  PMPG      C37           -11.5893438045       10.4732839053      -10.8322530741  MEMB      113             0.0000000000
     14013       113  PMPG      H7X           -10.7315903133       10.9139321974      -11.3839857457  MEMB      113             0.0000000000
     14014       113  PMPG      H7Y           -11.5913152160        9.3722543654      -10.9807494288  MEMB      113             0.0000000000
     14015       113  PMPG      C38           -11.3454885606       10.7072835910       -9.3602796911  MEMB      113             0.0000000000
     14016       113  PMPG      H8X           -11.3064325148       11.7979985030       -9.1525853505  MEMB      113             0.0000000000
     14017       113  PMPG      H8Y           -10.3535601773       10.3055586735       -9.0619237326  MEMB      113             0.0000000000
     14018       113  PMPG      C39           -12.3538028860        9.9969055467       -8.4436225181  MEMB      113             0.0000000000
     14019       113  PMPG      H9X           -12.1104340341        8.9321198711       -8.6469052254  MEMB      113             0.0000000000
     14020       113  PMPG      H9Y           -13.4419893057       10.0978415372       -8.6435812243  MEMB      113             0.0000000000
     14021       113  PMPG      C310          -12.0257532331       10.3563830571       -6.9845259359  MEMB      113             0.0000000000
     14022       113  PMPG      H10X          -12.0909767380       11.4653450475       -6.9680881383  MEMB      113             0.0000000000
     14023       113  PMPG      H10Y          -10.9540966830       10.0829412497       -6.8791561442  MEMB      113             0.0000000000
     14024       113  PMPG      C311          -13.0220700720        9.6240319974       -6.0972673108  MEMB      113             0.0000000000
     14025       113  PMPG      H11X          -12.8418833760        8.5763454554       -6.4200777224  MEMB      113             0.0000000000
     14026       113  PMPG      H11Y          -14.0691258989        9.8970412319       -6.3491817075  MEMB      113             0.0000000000
     14027       113  PMPG      C312          -12.7398362553        9.8901221953       -4.5579640209  MEMB      113             0.0000000000
     14028       113  PMPG      H12X          -13.5460642282        9.3584113202       -4.0087810605  MEMB      113             0.0000000000
     14029       113  PMPG      H12Y          -12.9853498079       10.9689022963       -4.4565852487  MEMB      113             0.0000000000
     14030       113  PMPG      C313          -11.2735782712        9.4575771250       -4.1403837758  MEMB      113             0.0000000000
     14031       113  PMPG      H13X          -10.4910207007        9.8968107531       -4.7953630582  MEMB      113             0.0000000000
     14032       113  PMPG      H13Y          -11.2321253429        8.3656638349       -4.3412019693  MEMB      113             0.0000000000
     14033       113  PMPG      C314          -10.8368085970        9.6619017346       -2.7520945358  MEMB      113             0.0000000000
     14034       113  PMPG      H14X           -9.8571943334        9.1385483394       -2.7242018294  MEMB      113             0.0000000000
     14035       113  PMPG      H14Y          -11.5968668821        9.1882923058       -2.0945793746  MEMB      113             0.0000000000
     14036       113  PMPG      C315          -10.6496569341       11.1493726609       -2.4315977493  MEMB      113             0.0000000000
     14037       113  PMPG      H15X          -11.4736427056       11.7730103805       -2.8395727679  MEMB      113             0.0000000000
     14038       113  PMPG      H15Y           -9.6876478672       11.4823873139       -2.8765245764  MEMB      113             0.0000000000
     14039       113  PMPG      C316          -10.7432275343       11.4423496835       -0.9370408863  MEMB      113             0.0000000000
     14040       113  PMPG      H16X          -10.7491038665       12.5011733690       -0.6006191825  MEMB      113             0.0000000000
     14041       113  PMPG      H16Y           -9.8435661790       10.9283959520       -0.5360637122  MEMB      113             0.0000000000
     14042       113  PMPG      H16Z          -11.6790690835       11.0392338804       -0.4943001470  MEMB      113             0.0000000000
     14043       114  POPE      N             -10.6040474223       -8.6344237284      -18.8879522872  MEMB      114             0.0000000000
     14044       114  POPE      HN1           -10.5007924788       -9.1775128379      -18.0070477479  MEMB      114             0.0000000000
     14045       114  POPE      HN2            -9.6506662599       -8.3610298922      -19.2008743724  MEMB      114             0.0000000000
     14046       114  POPE      HN3           -11.1864746898       -7.7960037666      -18.6893820656  MEMB      114             0.0000000000
     14047       114  POPE      C12           -11.3347539186       -9.5071600434      -19.8869001182  MEMB      114             0.0000000000
     14048       114  POPE      H12A          -11.5753983109       -8.8126360174      -20.7199952411  MEMB      114             0.0000000000
     14049       114  POPE      H12B          -12.3038674230       -9.6763186595      -19.3706391988  MEMB      114             0.0000000000
     14050       114  POPE      C11           -10.6461903050      -10.8851754190      -20.1682199786  MEMB      114             0.0000000000
     14051       114  POPE      H11A           -9.6157424372      -10.6710779629      -20.5241137161  MEMB      114             0.0000000000
     14052       114  POPE      H11B          -11.1378588438      -11.3882894350      -21.0281382904  MEMB      114             0.0000000000
     14053       114  POPE      P             -11.9555482759      -12.4729022471      -18.6693917919  MEMB      114             0.0000000000
     14054       114  POPE      O13           -11.7600598278      -13.8291258673      -19.2428408214  MEMB      114             0.0000000000
     14055       114  POPE      O14           -13.1960162948      -11.8108787171      -19.0611089984  MEMB      114             0.0000000000
     14056       114  POPE      O11           -11.9350797444      -12.4936295159      -17.1092509310  MEMB      114             0.0000000000
     14057       114  POPE      O12           -10.7649362012      -11.5980196244      -18.9743350768  MEMB      114             0.0000000000
     14058       114  POPE      C1            -10.6906490794      -12.9259242489      -16.4836154089  MEMB      114             0.0000000000
     14059       114  POPE      HA             -9.8784706515      -12.8975682771      -17.2411662250  MEMB      114             0.0000000000
     14060       114  POPE      HB            -10.6636332080      -13.9509098989      -16.0558356234  MEMB      114             0.0000000000
     14061       114  POPE      C2            -10.2853860048      -11.8489953724      -15.3811547863  MEMB      114             0.0000000000
     14062       114  POPE      HS             -9.3882539262      -12.1759136614      -14.8131768240  MEMB      114             0.0000000000
     14063       114  POPE      O21           -11.3166685042      -11.5416529019      -14.4235655827  MEMB      114             0.0000000000
     14064       114  POPE      C21           -11.5556836589      -12.6391723482      -13.5568617474  MEMB      114             0.0000000000
     14065       114  POPE      O22           -11.0943259484      -13.7470170284      -13.6459736749  MEMB      114             0.0000000000
     14066       114  POPE      C22           -12.4149729451      -12.1706149404      -12.4577198945  MEMB      114             0.0000000000
     14067       114  POPE      H2R           -13.3912316886      -11.8231322801      -12.8583385464  MEMB      114             0.0000000000
     14068       114  POPE      H2S           -11.9840386817      -11.2711266122      -11.9682946641  MEMB      114             0.0000000000
     14069       114  POPE      C3             -9.8264705464      -10.4934431284      -16.1035319332  MEMB      114             0.0000000000
     14070       114  POPE      HX            -10.7254111835      -10.0817365165      -16.6102117261  MEMB      114             0.0000000000
     14071       114  POPE      HY             -8.9919358589      -10.7364574246      -16.7954978631  MEMB      114             0.0000000000
     14072       114  POPE      O31            -9.2371033515       -9.5546983289      -15.2059871722  MEMB      114             0.0000000000
     14073       114  POPE      C31           -10.1258212961       -8.7186827976      -14.6562871580  MEMB      114             0.0000000000
     14074       114  POPE      O32           -11.3265892393       -8.8400442674      -14.8136934015  MEMB      114             0.0000000000
     14075       114  POPE      C32            -9.5028325190       -7.6782669389      -13.7090466603  MEMB      114             0.0000000000
     14076       114  POPE      H2X            -9.7379979146       -6.7023943536      -14.1851672448  MEMB      114             0.0000000000
     14077       114  POPE      H2Y            -8.4030883978       -7.7628103284      -13.5758684873  MEMB      114             0.0000000000
     14078       114  POPE      C23           -12.7343362382      -13.2444739278      -11.3302848365  MEMB      114             0.0000000000
     14079       114  POPE      H3R           -11.7976836347      -13.5448017647      -10.8137521818  MEMB      114             0.0000000000
     14080       114  POPE      H3S           -13.0817478746      -14.1711986104      -11.8350693970  MEMB      114             0.0000000000
     14081       114  POPE      C24           -13.8514233749      -12.8361126172      -10.3600435718  MEMB      114             0.0000000000
     14082       114  POPE      H4R           -14.1102416310      -13.7663907793       -9.8105741449  MEMB      114             0.0000000000
     14083       114  POPE      H4S           -14.7584799803      -12.6143105662      -10.9620179980  MEMB      114             0.0000000000
     14084       114  POPE      C25           -13.4402083538      -11.6466092452       -9.5761950611  MEMB      114             0.0000000000
     14085       114  POPE      H5R           -12.9300154275      -10.8813770086      -10.1994474613  MEMB      114             0.0000000000
     14086       114  POPE      H5S           -12.6622310339      -11.9496763862       -8.8432401752  MEMB      114             0.0000000000
     14087       114  POPE      C26           -14.6416333780      -11.2432166736       -8.6480211860  MEMB      114             0.0000000000
     14088       114  POPE      H6R           -14.9789952358      -12.1539961689       -8.1085876249  MEMB      114             0.0000000000
     14089       114  POPE      H6S           -15.4808434176      -10.8328948891       -9.2494222573  MEMB      114             0.0000000000
     14090       114  POPE      C27           -14.3613418941      -10.0782703032       -7.6418987840  MEMB      114             0.0000000000
     14091       114  POPE      H7R           -13.3228853235      -10.2959515643       -7.3124391352  MEMB      114             0.0000000000
     14092       114  POPE      H7S           -15.1713525548      -10.0904198193       -6.8815992507  MEMB      114             0.0000000000
     14093       114  POPE      C28           -14.2825974522       -8.6381446951       -8.3570390070  MEMB      114             0.0000000000
     14094       114  POPE      H8R           -15.0269581987       -8.6802292480       -9.1807367867  MEMB      114             0.0000000000
     14095       114  POPE      H8S           -13.2865925966       -8.6060358256       -8.8482259155  MEMB      114             0.0000000000
     14096       114  POPE      C29           -14.4716590300       -7.4552094542       -7.4343373231  MEMB      114             0.0000000000
     14097       114  POPE      H91           -15.4655870635       -7.2301055997       -7.0202892188  MEMB      114             0.0000000000
     14098       114  POPE      C210          -13.6444524920       -6.5623700559       -6.9356165272  MEMB      114             0.0000000000
     14099       114  POPE      H101          -14.1435816731       -5.7827039987       -6.3414863514  MEMB      114             0.0000000000
     14100       114  POPE      C211          -12.1333911744       -6.4483647128       -7.1187430657  MEMB      114             0.0000000000
     14101       114  POPE      H11R          -11.8539142809       -5.7200188452       -7.9097714384  MEMB      114             0.0000000000
     14102       114  POPE      H11S          -11.6710592080       -7.4032369777       -7.4485761249  MEMB      114             0.0000000000
     14103       114  POPE      C212          -11.5340192379       -5.8961710233       -5.7996369058  MEMB      114             0.0000000000
     14104       114  POPE      H12R          -11.9664631316       -4.9462724455       -5.4188413192  MEMB      114             0.0000000000
     14105       114  POPE      H12S          -10.4510594868       -5.7287412738       -5.9826300440  MEMB      114             0.0000000000
     14106       114  POPE      C213          -11.4479841361       -6.9421901189       -4.7609624488  MEMB      114             0.0000000000
     14107       114  POPE      H13R          -10.7728504413       -7.7667446366       -5.0750086420  MEMB      114             0.0000000000
     14108       114  POPE      H13S          -12.4638594216       -7.3855736768       -4.6852705063  MEMB      114             0.0000000000
     14109       114  POPE      C214          -10.8035316904       -6.4201419668       -3.4736578186  MEMB      114             0.0000000000
     14110       114  POPE      H14R          -11.2589214796       -5.4388307269       -3.2207365680  MEMB      114             0.0000000000
     14111       114  POPE      H14S           -9.7330109315       -6.2545078156       -3.7203798132  MEMB      114             0.0000000000
     14112       114  POPE      C215          -10.9339378544       -7.3306714459       -2.1847317406  MEMB      114             0.0000000000
     14113       114  POPE      H15R          -10.3433690060       -8.2624382964       -2.3164872562  MEMB      114             0.0000000000
     14114       114  POPE      H15S          -12.0004530848       -7.5628830241       -1.9775023806  MEMB      114             0.0000000000
     14115       114  POPE      C216          -10.4159464565       -6.6908159686       -0.8568129139  MEMB      114             0.0000000000
     14116       114  POPE      H16R          -10.2300185229       -7.4992856010       -0.1178076404  MEMB      114             0.0000000000
     14117       114  POPE      H16S          -11.2537139221       -6.1086325117       -0.4168951007  MEMB      114             0.0000000000
     14118       114  POPE      C217           -9.1077039756       -5.8966744588       -0.9684839838  MEMB      114             0.0000000000
     14119       114  POPE      H17R           -9.0906974160       -5.1190001786       -0.1752284098  MEMB      114             0.0000000000
     14120       114  POPE      H17S           -8.9730420905       -5.4003050276       -1.9532712982  MEMB      114             0.0000000000
     14121       114  POPE      C218           -7.9026579625       -6.8796318894       -0.7500928597  MEMB      114             0.0000000000
     14122       114  POPE      H18R           -6.9810192414       -6.2676676912       -0.8520869945  MEMB      114             0.0000000000
     14123       114  POPE      H18S           -7.8294445518       -7.8025861867       -1.3641903835  MEMB      114             0.0000000000
     14124       114  POPE      H18T           -7.8987046632       -7.3250266004        0.2677134671  MEMB      114             0.0000000000
     14125       114  POPE      C33           -10.0477447567       -7.8010721046      -12.3088689908  MEMB      114             0.0000000000
     14126       114  POPE      H3X           -11.1578576790       -7.8454372472      -12.3102478864  MEMB      114             0.0000000000
     14127       114  POPE      H3Y            -9.8112542330       -6.9494627151      -11.6357012539  MEMB      114             0.0000000000
     14128       114  POPE      C34            -9.6062882544       -9.1302532004      -11.6314241243  MEMB      114             0.0000000000
     14129       114  POPE      H4X            -8.5011228513       -9.1143119367      -11.5188342007  MEMB      114             0.0000000000
     14130       114  POPE      H4Y           -10.0183271912       -9.9922504729      -12.1984387010  MEMB      114             0.0000000000
     14131       114  POPE      C35           -10.1263377651       -9.0227649380      -10.2073576771  MEMB      114             0.0000000000
     14132       114  POPE      H5X           -11.2228481964       -8.8495980158      -10.1626457561  MEMB      114             0.0000000000
     14133       114  POPE      H5Y            -9.6112499961       -8.2269457461       -9.6279808580  MEMB      114             0.0000000000
     14134       114  POPE      C36            -9.8278772987      -10.3632024206       -9.4377497404  MEMB      114             0.0000000000
     14135       114  POPE      H6X            -8.7684466948      -10.6669522179       -9.2975207566  MEMB      114             0.0000000000
     14136       114  POPE      H6Y           -10.4943792913      -11.0779102914       -9.9662273285  MEMB      114             0.0000000000
     14137       114  POPE      C37           -10.3618305215      -10.2851710227       -8.0142108398  MEMB      114             0.0000000000
     14138       114  POPE      H7X           -11.4419257740      -10.0414225302       -7.9230956518  MEMB      114             0.0000000000
     14139       114  POPE      H7Y            -9.7156847065       -9.4711508033       -7.6215434491  MEMB      114             0.0000000000
     14140       114  POPE      C38            -9.9720042179      -11.6384104093       -7.2766798511  MEMB      114             0.0000000000
     14141       114  POPE      H8X            -8.8640062696      -11.6244619954       -7.1962608855  MEMB      114             0.0000000000
     14142       114  POPE      H8Y           -10.0915294819      -12.5523428509       -7.8969717468  MEMB      114             0.0000000000
     14143       114  POPE      C39           -10.6672457412      -11.7171650434       -5.8668739705  MEMB      114             0.0000000000
     14144       114  POPE      H9X           -11.7594260888      -11.9135743174       -5.9205969382  MEMB      114             0.0000000000
     14145       114  POPE      H9Y           -10.4344976389      -10.7727658583       -5.3299745649  MEMB      114             0.0000000000
     14146       114  POPE      C310          -10.1637713460      -12.8547616148       -4.9242594537  MEMB      114             0.0000000000
     14147       114  POPE      H10X           -9.8795814003      -13.7904004982       -5.4516453759  MEMB      114             0.0000000000
     14148       114  POPE      H10Y          -11.0041550826      -13.0364288621       -4.2206447029  MEMB      114             0.0000000000
     14149       114  POPE      C311           -8.8363140793      -12.3521196486       -4.3247355005  MEMB      114             0.0000000000
     14150       114  POPE      H11X           -8.9901706538      -11.3493902681       -3.8717653138  MEMB      114             0.0000000000
     14151       114  POPE      H11Y           -8.0656729277      -12.4400568335       -5.1201603493  MEMB      114             0.0000000000
     14152       114  POPE      C312           -8.3578787083      -13.1514948570       -3.0612694147  MEMB      114             0.0000000000
     14153       114  POPE      H12X           -8.2869955279      -14.2289080666       -3.3229523465  MEMB      114             0.0000000000
     14154       114  POPE      H12Y           -9.0999677917      -13.0515270321       -2.2405184540  MEMB      114             0.0000000000
     14155       114  POPE      C313           -7.0251134387      -12.5423817722       -2.4383319853  MEMB      114             0.0000000000
     14156       114  POPE      H13X           -6.1493876022      -12.4967580130       -3.1204938262  MEMB      114             0.0000000000
     14157       114  POPE      H13Y           -6.9168323738      -13.2221736787       -1.5662779137  MEMB      114             0.0000000000
     14158       114  POPE      C314           -7.2660830049      -11.0957913874       -1.9092930877  MEMB      114             0.0000000000
     14159       114  POPE      H14X           -7.4966327339      -10.4259907682       -2.7651753724  MEMB      114             0.0000000000
     14160       114  POPE      H14Y           -6.3551330665      -10.6337446387       -1.4722516304  MEMB      114             0.0000000000
     14161       114  POPE      C315           -8.3178955940      -10.9552703607       -0.8047861773  MEMB      114             0.0000000000
     14162       114  POPE      H15X           -9.3454160290      -10.9496920667       -1.2272668096  MEMB      114             0.0000000000
     14163       114  POPE      H15Y           -8.0518087892       -9.9915880538       -0.3201863387  MEMB      114             0.0000000000
     14164       114  POPE      C316           -8.3655737680      -11.8504765360        0.4096701465  MEMB      114             0.0000000000
     14165       114  POPE      H16X           -7.3158675916      -11.8850227652        0.7719477522  MEMB      114             0.0000000000
     14166       114  POPE      H16Y           -8.6356171980      -12.9226770133        0.3011176741  MEMB      114             0.0000000000
     14167       114  POPE      H16Z           -8.9291115225      -11.4088033121        1.2591826143  MEMB      114             0.0000000000
     14168       115  PMPE      N              -0.3161966532      -15.9159795183      -20.0420836141  MEMB      115             0.0000000000
     14169       115  PMPE      HN1            -1.1996037284      -16.4095121119      -20.2821199969  MEMB      115             0.0000000000
     14170       115  PMPE      HN2            -0.2497277675      -15.8211890580      -19.0085475906  MEMB      115             0.0000000000
     14171       115  PMPE      HN3            -0.3442179481      -14.9670620214      -20.4667840613  MEMB      115             0.0000000000
     14172       115  PMPE      C12             0.9405062078      -16.5578300534      -20.5991901138  MEMB      115             0.0000000000
     14173       115  PMPE      H12A            0.6890380482      -16.8265876506      -21.6474525374  MEMB      115             0.0000000000
     14174       115  PMPE      H12B            0.9951975172      -17.4079715747      -19.8860356250  MEMB      115             0.0000000000
     14175       115  PMPE      C11             2.1964226576      -15.6590259197      -20.4840716383  MEMB      115             0.0000000000
     14176       115  PMPE      H11A            1.8749208468      -14.7689466207      -21.0660652212  MEMB      115             0.0000000000
     14177       115  PMPE      H11B            3.0141103982      -16.2856255654      -20.9001012359  MEMB      115             0.0000000000
     14178       115  PMPE      P               3.2805811974      -16.3112926344      -18.2322939866  MEMB      115             0.0000000000
     14179       115  PMPE      O13             4.5859845510      -16.6920404749      -18.8583760798  MEMB      115             0.0000000000
     14180       115  PMPE      O14             2.3360404033      -17.3476543459      -17.8278043753  MEMB      115             0.0000000000
     14181       115  PMPE      O11             3.6015828764      -15.5197596005      -16.8596172907  MEMB      115             0.0000000000
     14182       115  PMPE      O12             2.5197501171      -15.1980486573      -19.0965629031  MEMB      115             0.0000000000
     14183       115  PMPE      C1              2.6306469144      -14.4568643613      -16.6583758987  MEMB      115             0.0000000000
     14184       115  PMPE      HA              1.6162244030      -14.8235079990      -16.9245348569  MEMB      115             0.0000000000
     14185       115  PMPE      HB              2.7845046571      -13.6250458459      -17.3786028354  MEMB      115             0.0000000000
     14186       115  PMPE      C2              2.7442916890      -13.9533274082      -15.1776192948  MEMB      115             0.0000000000
     14187       115  PMPE      HS              3.7905633121      -13.6019342261      -15.0505001848  MEMB      115             0.0000000000
     14188       115  PMPE      O21             2.2776699996      -14.9670503799      -14.3056003260  MEMB      115             0.0000000000
     14189       115  PMPE      C21             3.2262305224      -15.7219061609      -13.7549669324  MEMB      115             0.0000000000
     14190       115  PMPE      O22             4.3676725351      -15.8239669063      -14.1356506110  MEMB      115             0.0000000000
     14191       115  PMPE      C22             2.7700641628      -16.4193084485      -12.4480600575  MEMB      115             0.0000000000
     14192       115  PMPE      H2R             1.7398357610      -16.7186109699      -12.7367956875  MEMB      115             0.0000000000
     14193       115  PMPE      H2S             2.6841552752      -15.6288368442      -11.6721121257  MEMB      115             0.0000000000
     14194       115  PMPE      C3              1.8828735973      -12.6997355815      -14.8823993209  MEMB      115             0.0000000000
     14195       115  PMPE      HX              0.8568062324      -12.9857708033      -15.1981370604  MEMB      115             0.0000000000
     14196       115  PMPE      HY              2.2606508528      -11.7803529064      -15.3787266060  MEMB      115             0.0000000000
     14197       115  PMPE      O31             1.9575739619      -12.5461032501      -13.4193710065  MEMB      115             0.0000000000
     14198       115  PMPE      C31             3.0652960976      -12.0928582406      -12.8726698353  MEMB      115             0.0000000000
     14199       115  PMPE      O32             4.1333276433      -11.8177996673      -13.4484150500  MEMB      115             0.0000000000
     14200       115  PMPE      C32             2.8320649664      -12.0326827902      -11.3630506769  MEMB      115             0.0000000000
     14201       115  PMPE      H2X             2.7987133097      -13.0956965809      -11.0417870662  MEMB      115             0.0000000000
     14202       115  PMPE      H2Y             1.9301377515      -11.4755909497      -11.0306395211  MEMB      115             0.0000000000
     14203       115  PMPE      C23             3.6116770291      -17.6480695107      -12.0445481248  MEMB      115             0.0000000000
     14204       115  PMPE      H3R             4.6387875315      -17.3107490857      -11.7884622231  MEMB      115             0.0000000000
     14205       115  PMPE      H3S             3.6029146754      -18.4507252468      -12.8126548740  MEMB      115             0.0000000000
     14206       115  PMPE      C24             3.1675131716      -18.1832584649      -10.6930611253  MEMB      115             0.0000000000
     14207       115  PMPE      H4R             2.1557295016      -18.6401247007      -10.6496086119  MEMB      115             0.0000000000
     14208       115  PMPE      H4S             3.0112568210      -17.3149539128      -10.0178184894  MEMB      115             0.0000000000
     14209       115  PMPE      C25             4.0813102399      -19.1519036810       -9.9921161592  MEMB      115             0.0000000000
     14210       115  PMPE      H5R             5.0244626909      -19.1138881168      -10.5780683220  MEMB      115             0.0000000000
     14211       115  PMPE      H5S             3.7058506736      -20.1877844574      -10.1346018722  MEMB      115             0.0000000000
     14212       115  PMPE      C26             4.2181294602      -18.9724772003       -8.5036161733  MEMB      115             0.0000000000
     14213       115  PMPE      H6R             4.6262182291      -19.8720531320       -7.9951408869  MEMB      115             0.0000000000
     14214       115  PMPE      H6S             3.2260846336      -19.0726219589       -8.0135769362  MEMB      115             0.0000000000
     14215       115  PMPE      C27             5.1687264598      -17.8180987844       -8.1573494655  MEMB      115             0.0000000000
     14216       115  PMPE      H7R             4.8246659699      -17.1070303591       -8.9385828937  MEMB      115             0.0000000000
     14217       115  PMPE      H7S             6.2451654055      -17.9648525570       -8.3898650327  MEMB      115             0.0000000000
     14218       115  PMPE      C28             4.9891709103      -17.3608535500       -6.7232073182  MEMB      115             0.0000000000
     14219       115  PMPE      H8R             5.3472993668      -18.1270939107       -6.0028318583  MEMB      115             0.0000000000
     14220       115  PMPE      H8S             3.9243270919      -17.2717937708       -6.4190743014  MEMB      115             0.0000000000
     14221       115  PMPE      C29             5.6046301587      -15.9873462673       -6.4140093276  MEMB      115             0.0000000000
     14222       115  PMPE      H9R             5.6558664108      -15.3417270218       -7.3167121048  MEMB      115             0.0000000000
     14223       115  PMPE      C217            6.9252219297      -16.0289886267       -5.6674030669  MEMB      115             0.0000000000
     14224       115  PMPE      H17R            7.5595655450      -15.2332226795       -6.0378793350  MEMB      115             0.0000000000
     14225       115  PMPE      H17S            7.2509669682      -17.0185452025       -5.3715029517  MEMB      115             0.0000000000
     14226       115  PMPE      C210            5.6439488127      -15.5819627872       -4.9689117588  MEMB      115             0.0000000000
     14227       115  PMPE      H10R            5.5337913039      -14.4799507426       -4.8808444301  MEMB      115             0.0000000000
     14228       115  PMPE      C211            5.1198685203      -16.4854139006       -3.8327328226  MEMB      115             0.0000000000
     14229       115  PMPE      H11R            5.5058625812      -17.5142154313       -3.9967348352  MEMB      115             0.0000000000
     14230       115  PMPE      H11S            4.0241530343      -16.5759353330       -3.9925278573  MEMB      115             0.0000000000
     14231       115  PMPE      C212            5.2817042438      -16.0029239000       -2.3647773269  MEMB      115             0.0000000000
     14232       115  PMPE      H12R            4.6849546938      -15.0830039560       -2.1860074930  MEMB      115             0.0000000000
     14233       115  PMPE      H12S            6.3128770385      -15.8079834502       -2.0000826960  MEMB      115             0.0000000000
     14234       115  PMPE      C213            4.8692387915      -17.1231241130       -1.3837019513  MEMB      115             0.0000000000
     14235       115  PMPE      H13R            4.0485934463      -17.5876415949       -1.9711422260  MEMB      115             0.0000000000
     14236       115  PMPE      H13S            4.5674450226      -16.5466320508       -0.4832035843  MEMB      115             0.0000000000
     14237       115  PMPE      C214            5.8819643154      -18.1789965079       -1.0893605762  MEMB      115             0.0000000000
     14238       115  PMPE      H14R            6.2574227134      -18.7864946917       -1.9404163191  MEMB      115             0.0000000000
     14239       115  PMPE      H14S            5.3360736846      -18.9393907331       -0.4909238620  MEMB      115             0.0000000000
     14240       115  PMPE      C215            7.0467581626      -17.9051228395       -0.1195558503  MEMB      115             0.0000000000
     14241       115  PMPE      H15R            7.8725206330      -17.3391956609       -0.6013905695  MEMB      115             0.0000000000
     14242       115  PMPE      H15S            7.4263250618      -18.9225579747        0.1151266012  MEMB      115             0.0000000000
     14243       115  PMPE      C216            6.6072807105      -17.2766226196        1.2163587353  MEMB      115             0.0000000000
     14244       115  PMPE      H16R            6.3427999069      -16.2094526176        1.0566135112  MEMB      115             0.0000000000
     14245       115  PMPE      H16S            5.7208869808      -17.7542560444        1.6859279399  MEMB      115             0.0000000000
     14246       115  PMPE      H16T            7.4955918760      -17.2589702429        1.8833764271  MEMB      115             0.0000000000
     14247       115  PMPE      C33             4.1938549489      -11.6783864849      -10.6110247275  MEMB      115             0.0000000000
     14248       115  PMPE      H3X             4.2806296307      -10.5723348931      -10.5523647958  MEMB      115             0.0000000000
     14249       115  PMPE      H3Y             5.1100454729      -11.9312435877      -11.1863322893  MEMB      115             0.0000000000
     14250       115  PMPE      C34             4.2745371810      -12.3467889349       -9.2488505083  MEMB      115             0.0000000000
     14251       115  PMPE      H4X             5.1232040622      -11.9426943407       -8.6565724566  MEMB      115             0.0000000000
     14252       115  PMPE      H4Y             4.3260328700      -13.4546873571       -9.3138912614  MEMB      115             0.0000000000
     14253       115  PMPE      C35             2.9948170333      -12.2377563560       -8.3437908508  MEMB      115             0.0000000000
     14254       115  PMPE      H5X             2.1073435407      -12.5484770992       -8.9355377617  MEMB      115             0.0000000000
     14255       115  PMPE      H5Y             2.8606750389      -11.1433530728       -8.2073783911  MEMB      115             0.0000000000
     14256       115  PMPE      C36             2.9311396339      -13.0863957239       -7.0939531513  MEMB      115             0.0000000000
     14257       115  PMPE      H6X             2.1088689322      -12.8416126744       -6.3880683596  MEMB      115             0.0000000000
     14258       115  PMPE      H6Y             3.8110415280      -12.7292862099       -6.5172669850  MEMB      115             0.0000000000
     14259       115  PMPE      C37             2.8144851343      -14.5563658431       -7.3353315211  MEMB      115             0.0000000000
     14260       115  PMPE      H7X             3.2924897971      -14.9686561705       -6.4210829487  MEMB      115             0.0000000000
     14261       115  PMPE      H7Y             3.3877827506      -14.8990646535       -8.2231426719  MEMB      115             0.0000000000
     14262       115  PMPE      C38             1.3654498767      -14.9551600818       -7.4009994450  MEMB      115             0.0000000000
     14263       115  PMPE      H8X             0.8788850353      -14.2638889845       -8.1219148673  MEMB      115             0.0000000000
     14264       115  PMPE      H8Y             0.8850317159      -14.7448242464       -6.4215715175  MEMB      115             0.0000000000
     14265       115  PMPE      C39             1.1121215504      -16.3619842532       -7.7701114563  MEMB      115             0.0000000000
     14266       115  PMPE      H9X             1.8494413746      -17.0209579989       -7.2637188903  MEMB      115             0.0000000000
     14267       115  PMPE      H9Y             1.3617591051      -16.4613868799       -8.8481289224  MEMB      115             0.0000000000
     14268       115  PMPE      C310           -0.3573636028      -16.8800704615       -7.6169732956  MEMB      115             0.0000000000
     14269       115  PMPE      H10X           -0.5254221211      -17.5774094178       -8.4653813209  MEMB      115             0.0000000000
     14270       115  PMPE      H10Y           -1.1285763073      -16.0890445645       -7.7345726144  MEMB      115             0.0000000000
     14271       115  PMPE      C311           -0.4614111600      -17.6836239116       -6.3509532219  MEMB      115             0.0000000000
     14272       115  PMPE      H11X            0.4289710186      -18.3475112827       -6.3227708818  MEMB      115             0.0000000000
     14273       115  PMPE      H11Y           -1.3810940602      -18.3010865800       -6.4360627861  MEMB      115             0.0000000000
     14274       115  PMPE      C312           -0.5855454430      -16.9638133129       -5.0095892462  MEMB      115             0.0000000000
     14275       115  PMPE      H12X           -1.5104391815      -16.3581029797       -4.9000096220  MEMB      115             0.0000000000
     14276       115  PMPE      H12Y            0.2704776644      -16.2718268831       -4.8589241760  MEMB      115             0.0000000000
     14277       115  PMPE      C313           -0.5099244938      -17.9156498455       -3.7838788232  MEMB      115             0.0000000000
     14278       115  PMPE      H13X            0.4786265129      -18.4168962454       -3.7074591628  MEMB      115             0.0000000000
     14279       115  PMPE      H13Y           -1.2706094024      -18.6653819987       -4.0897890569  MEMB      115             0.0000000000
     14280       115  PMPE      C314           -0.8790146000      -17.4456670727       -2.4270145710  MEMB      115             0.0000000000
     14281       115  PMPE      H14X           -1.4079103796      -18.3279964564       -2.0073903044  MEMB      115             0.0000000000
     14282       115  PMPE      H14Y           -1.7257062768      -16.7783826166       -2.6956518569  MEMB      115             0.0000000000
     14283       115  PMPE      C315            0.1883521450      -16.8080647850       -1.7008358523  MEMB      115             0.0000000000
     14284       115  PMPE      H15X            0.4134016632      -15.7939129166       -2.0947527341  MEMB      115             0.0000000000
     14285       115  PMPE      H15Y            1.1603965546      -17.3264623129       -1.8447626031  MEMB      115             0.0000000000
     14286       115  PMPE      C316           -0.1712111887      -16.8317164037       -0.2225176032  MEMB      115             0.0000000000
     14287       115  PMPE      H16X           -0.2828558527      -17.8605015506        0.1817811821  MEMB      115             0.0000000000
     14288       115  PMPE      H16Y           -1.0622787171      -16.2178607649        0.0294758080  MEMB      115             0.0000000000
     14289       115  PMPE      H16Z            0.6738212525      -16.3938481105        0.3506412135  MEMB      115             0.0000000000
     14290       116  POPE      N              19.5403325913        2.6294661789      -18.6023468927  MEMB      116             0.0000000000
     14291       116  POPE      HN1            19.5532266338        2.4143701701      -17.5849150642  MEMB      116             0.0000000000
     14292       116  POPE      HN2            19.4776768511        1.7876858032      -19.2098665127  MEMB      116             0.0000000000
     14293       116  POPE      HN3            20.3854645320        3.1920138476      -18.8279406702  MEMB      116             0.0000000000
     14294       116  POPE      C12            18.3111435063        3.5685557612      -18.7667633749  MEMB      116             0.0000000000
     14295       116  POPE      H12A           18.4378603741        3.9821460208      -19.7900946412  MEMB      116             0.0000000000
     14296       116  POPE      H12B           18.4431111023        4.3316323892      -17.9701332238  MEMB      116             0.0000000000
     14297       116  POPE      C11            17.0829470725        2.7712628351      -18.5577802799  MEMB      116             0.0000000000
     14298       116  POPE      H11A           16.2059104474        3.4518935405      -18.5145401960  MEMB      116             0.0000000000
     14299       116  POPE      H11B           17.0394895611        2.3393837264      -17.5350813969  MEMB      116             0.0000000000
     14300       116  POPE      P              15.7448841279        0.7076989543      -19.2561309257  MEMB      116             0.0000000000
     14301       116  POPE      O13            15.8536847971       -0.4804965043      -20.1510477332  MEMB      116             0.0000000000
     14302       116  POPE      O14            14.4771241689        1.4706464781      -19.4530246411  MEMB      116             0.0000000000
     14303       116  POPE      O11            15.9242466845        0.1307506311      -17.7678861816  MEMB      116             0.0000000000
     14304       116  POPE      O12            16.9589754523        1.7046979863      -19.4450199511  MEMB      116             0.0000000000
     14305       116  POPE      C1             17.1658573421       -0.3472209834      -17.2623859095  MEMB      116             0.0000000000
     14306       116  POPE      HA             17.7217368821        0.4437580369      -16.7149635320  MEMB      116             0.0000000000
     14307       116  POPE      HB             17.7902172645       -0.9234490703      -17.9782468717  MEMB      116             0.0000000000
     14308       116  POPE      C2             17.0690841813       -1.3667376684      -16.1209462949  MEMB      116             0.0000000000
     14309       116  POPE      HS             16.8809174804       -2.3910663847      -16.5078117222  MEMB      116             0.0000000000
     14310       116  POPE      O21            16.1292026764       -0.9836198132      -15.1501976988  MEMB      116             0.0000000000
     14311       116  POPE      C21            15.6880280450       -1.8500204717      -14.2917661688  MEMB      116             0.0000000000
     14312       116  POPE      O22            16.0222887888       -3.0122004390      -14.2430954201  MEMB      116             0.0000000000
     14313       116  POPE      C22            14.6862087688       -1.0651319181      -13.4384684227  MEMB      116             0.0000000000
     14314       116  POPE      H2R            13.7744591850       -0.9727644931      -14.0665622312  MEMB      116             0.0000000000
     14315       116  POPE      H2S            15.0974989075       -0.0741210292      -13.1502688642  MEMB      116             0.0000000000
     14316       116  POPE      C3             18.5265126074       -1.5847943612      -15.4656905438  MEMB      116             0.0000000000
     14317       116  POPE      HX             19.2521118133       -1.7289605322      -16.2945713196  MEMB      116             0.0000000000
     14318       116  POPE      HY             18.5729934711       -2.4417756231      -14.7601815315  MEMB      116             0.0000000000
     14319       116  POPE      O31            18.9720712730       -0.3664389510      -14.8497991358  MEMB      116             0.0000000000
     14320       116  POPE      C31            18.8649205339       -0.2477426859      -13.5752719703  MEMB      116             0.0000000000
     14321       116  POPE      O32            18.3370929970       -1.0357333046      -12.8057151584  MEMB      116             0.0000000000
     14322       116  POPE      C32            19.5408297449        1.0832975536      -13.1598345380  MEMB      116             0.0000000000
     14323       116  POPE      H2X            19.1168725587        1.9944874345      -13.6334528634  MEMB      116             0.0000000000
     14324       116  POPE      H2Y            20.6007748010        1.0531238297      -13.4913866802  MEMB      116             0.0000000000
     14325       116  POPE      C23            14.2486435738       -1.9380382094      -12.3086009635  MEMB      116             0.0000000000
     14326       116  POPE      H3R            13.8206468938       -2.8549343537      -12.7673401022  MEMB      116             0.0000000000
     14327       116  POPE      H3S            13.3167522680       -1.6859479406      -11.7587373502  MEMB      116             0.0000000000
     14328       116  POPE      C24            15.3240061600       -2.2304971811      -11.1985853214  MEMB      116             0.0000000000
     14329       116  POPE      H4R            16.1839224565       -2.4636233384      -11.8623000306  MEMB      116             0.0000000000
     14330       116  POPE      H4S            14.9991043847       -3.0092720577      -10.4759029835  MEMB      116             0.0000000000
     14331       116  POPE      C25            15.6656570075       -0.9736893316      -10.4289242194  MEMB      116             0.0000000000
     14332       116  POPE      H5R            15.4859938873       -0.0737138378      -11.0550924198  MEMB      116             0.0000000000
     14333       116  POPE      H5S            16.7493017547       -0.8478346152      -10.2186967764  MEMB      116             0.0000000000
     14334       116  POPE      C26            14.7393734876       -0.6593984532       -9.2485828341  MEMB      116             0.0000000000
     14335       116  POPE      H6R            14.9221378514       -1.3464818095       -8.3948644084  MEMB      116             0.0000000000
     14336       116  POPE      H6S            13.7137701129       -0.9117073290       -9.5932549262  MEMB      116             0.0000000000
     14337       116  POPE      C27            14.6515160554        0.8076619732       -8.8557876359  MEMB      116             0.0000000000
     14338       116  POPE      H7R            14.2576547554        1.3950761936       -9.7126059674  MEMB      116             0.0000000000
     14339       116  POPE      H7S            15.6589090601        1.2382676072       -8.6712358718  MEMB      116             0.0000000000
     14340       116  POPE      C28            13.8165862314        1.0429862197       -7.5526553828  MEMB      116             0.0000000000
     14341       116  POPE      H8R            14.1337788949        0.1293488952       -7.0058677042  MEMB      116             0.0000000000
     14342       116  POPE      H8S            12.7939307879        0.7171273788       -7.8395577073  MEMB      116             0.0000000000
     14343       116  POPE      C29            13.9748036509        2.3663292694       -6.7358920934  MEMB      116             0.0000000000
     14344       116  POPE      H91            14.2262418841        3.2890576015       -7.2793542407  MEMB      116             0.0000000000
     14345       116  POPE      C210           13.5880629659        2.3810485000       -5.4304609769  MEMB      116             0.0000000000
     14346       116  POPE      H101           13.7038207114        3.2862167138       -4.8162377975  MEMB      116             0.0000000000
     14347       116  POPE      C211           12.9315659496        1.2065625406       -4.6726574530  MEMB      116             0.0000000000
     14348       116  POPE      H11R           12.4998053193        0.4523809688       -5.3648388164  MEMB      116             0.0000000000
     14349       116  POPE      H11S           12.2133936204        1.5433609702       -3.8947653986  MEMB      116             0.0000000000
     14350       116  POPE      C212           13.9663583521        0.4856732181       -3.8038619075  MEMB      116             0.0000000000
     14351       116  POPE      H12R           14.7475672149        0.0320658170       -4.4506034918  MEMB      116             0.0000000000
     14352       116  POPE      H12S           13.5049496276       -0.4043019724       -3.3249389098  MEMB      116             0.0000000000
     14353       116  POPE      C213           14.5803248629        1.2276417233       -2.6192300532  MEMB      116             0.0000000000
     14354       116  POPE      H13R           13.8320030873        1.4710416891       -1.8349524353  MEMB      116             0.0000000000
     14355       116  POPE      H13S           15.0036464088        2.1965200080       -2.9603984013  MEMB      116             0.0000000000
     14356       116  POPE      C214           15.6953495196        0.2621302749       -2.0199283833  MEMB      116             0.0000000000
     14357       116  POPE      H14R           16.5607196454        0.3616106999       -2.7095354502  MEMB      116             0.0000000000
     14358       116  POPE      H14S           15.2005457712       -0.7242837831       -1.8915622580  MEMB      116             0.0000000000
     14359       116  POPE      C215           16.1967625277        0.5912934909       -0.5705685001  MEMB      116             0.0000000000
     14360       116  POPE      H15R           15.3025996281        1.0825690240       -0.1307462270  MEMB      116             0.0000000000
     14361       116  POPE      H15S           16.9697731736        1.3769183127       -0.7104598242  MEMB      116             0.0000000000
     14362       116  POPE      C216           16.7814603805       -0.6524205330        0.0758988031  MEMB      116             0.0000000000
     14363       116  POPE      H16R           17.7832601409       -0.7470140617       -0.3950265316  MEMB      116             0.0000000000
     14364       116  POPE      H16S           16.1801427966       -1.5756822156       -0.0666695374  MEMB      116             0.0000000000
     14365       116  POPE      C217           17.1006727971       -0.3092336771        1.5369077972  MEMB      116             0.0000000000
     14366       116  POPE      H17R           17.5437439877       -1.1744577801        2.0748630647  MEMB      116             0.0000000000
     14367       116  POPE      H17S           16.1210773966       -0.1323717548        2.0302981585  MEMB      116             0.0000000000
     14368       116  POPE      C218           18.0208816183        0.8787986615        1.8073910628  MEMB      116             0.0000000000
     14369       116  POPE      H18R           18.4618625723        0.8731701081        2.8271094520  MEMB      116             0.0000000000
     14370       116  POPE      H18S           17.5212196820        1.8600822230        1.6599422741  MEMB      116             0.0000000000
     14371       116  POPE      H18T           18.8885918246        0.8325694265        1.1151031326  MEMB      116             0.0000000000
     14372       116  POPE      C33            19.4798058390        1.2811237746      -11.6031900998  MEMB      116             0.0000000000
     14373       116  POPE      H3X            19.4215432129        0.3649502406      -10.9774483732  MEMB      116             0.0000000000
     14374       116  POPE      H3Y            18.5194695769        1.7469044399      -11.2947690531  MEMB      116             0.0000000000
     14375       116  POPE      C34            20.5159157109        2.2909560010      -11.0841710734  MEMB      116             0.0000000000
     14376       116  POPE      H4X            20.5225979509        3.2075281723      -11.7120020192  MEMB      116             0.0000000000
     14377       116  POPE      H4Y            21.5638358481        1.9219506466      -11.0797579235  MEMB      116             0.0000000000
     14378       116  POPE      C35            20.2054211136        2.6707887373       -9.6703605515  MEMB      116             0.0000000000
     14379       116  POPE      H5X            21.1162207565        3.0288214109       -9.1444545722  MEMB      116             0.0000000000
     14380       116  POPE      H5Y            19.7102424467        1.8250969406       -9.1469822338  MEMB      116             0.0000000000
     14381       116  POPE      C36            19.3702672001        3.9983188119       -9.4742290725  MEMB      116             0.0000000000
     14382       116  POPE      H6X            18.3810887806        3.9283642058       -9.9751814657  MEMB      116             0.0000000000
     14383       116  POPE      H6Y            19.9463720447        4.7598291819      -10.0421429394  MEMB      116             0.0000000000
     14384       116  POPE      C37            18.9984208521        4.4111518173       -8.0727189767  MEMB      116             0.0000000000
     14385       116  POPE      H7X            19.1621228523        5.4892887019       -7.8602484830  MEMB      116             0.0000000000
     14386       116  POPE      H7Y            19.6922604200        3.9707151905       -7.3251075629  MEMB      116             0.0000000000
     14387       116  POPE      C38            17.5784472562        3.9956768498       -7.5500198339  MEMB      116             0.0000000000
     14388       116  POPE      H8X            17.5189764299        2.8970373532       -7.7042131973  MEMB      116             0.0000000000
     14389       116  POPE      H8Y            16.7829236208        4.5237126094       -8.1180355855  MEMB      116             0.0000000000
     14390       116  POPE      C39            17.2905072231        4.3057769001       -6.1230516460  MEMB      116             0.0000000000
     14391       116  POPE      H9X            18.1619292861        3.9817234338       -5.5148299196  MEMB      116             0.0000000000
     14392       116  POPE      H9Y            16.4538126845        3.6499551347       -5.8003117669  MEMB      116             0.0000000000
     14393       116  POPE      C310           16.7641335614        5.7341910142       -5.7817308833  MEMB      116             0.0000000000
     14394       116  POPE      H10X           15.8821384244        5.7953937729       -6.4545305062  MEMB      116             0.0000000000
     14395       116  POPE      H10Y           17.4373244598        6.5463585116       -6.1303269357  MEMB      116             0.0000000000
     14396       116  POPE      C311           16.2663947979        6.1888468877       -4.4128527586  MEMB      116             0.0000000000
     14397       116  POPE      H11X           15.5823412361        7.0288301609       -4.6594685712  MEMB      116             0.0000000000
     14398       116  POPE      H11Y           17.0613728258        6.7098085103       -3.8375882460  MEMB      116             0.0000000000
     14399       116  POPE      C312           15.4889611081        5.1343093118       -3.6453323576  MEMB      116             0.0000000000
     14400       116  POPE      H12X           16.1409052503        4.2356893608       -3.6032394033  MEMB      116             0.0000000000
     14401       116  POPE      H12Y           14.5695799919        4.9286268199       -4.2341899942  MEMB      116             0.0000000000
     14402       116  POPE      C313           15.0298797350        5.5776153702       -2.1729479697  MEMB      116             0.0000000000
     14403       116  POPE      H13X           13.9390780198        5.3701238441       -2.1352670410  MEMB      116             0.0000000000
     14404       116  POPE      H13Y           15.0763433712        6.6816107649       -2.0573775434  MEMB      116             0.0000000000
     14405       116  POPE      C314           15.5843990435        4.9510496581       -0.9542988050  MEMB      116             0.0000000000
     14406       116  POPE      H14X           15.5296989963        3.8458115218       -1.0531817147  MEMB      116             0.0000000000
     14407       116  POPE      H14Y           14.8482018913        5.1811664839       -0.1546866597  MEMB      116             0.0000000000
     14408       116  POPE      C315           17.0158502086        5.4216624159       -0.5767672217  MEMB      116             0.0000000000
     14409       116  POPE      H15X           17.1284522842        6.5250722337       -0.6410210208  MEMB      116             0.0000000000
     14410       116  POPE      H15Y           17.8023669919        4.9484022641       -1.2026570163  MEMB      116             0.0000000000
     14411       116  POPE      C316           17.3046424203        4.9926252396        0.8509497378  MEMB      116             0.0000000000
     14412       116  POPE      H16X           16.5043402025        5.3324576059        1.5425800573  MEMB      116             0.0000000000
     14413       116  POPE      H16Y           18.3544523205        5.1727516341        1.1668207579  MEMB      116             0.0000000000
     14414       116  POPE      H16Z           17.1716969344        3.8896608629        0.8617345993  MEMB      116             0.0000000000
     14415       117  PMPG      C13           -16.9964042623       -4.1072929790      -21.1857165544  MEMB      117             0.0000000000
     14416       117  PMPG      H13A          -17.6224881355       -3.2651030970      -20.8209477663  MEMB      117             0.0000000000
     14417       117  PMPG      H13B          -16.6379123804       -3.7491779014      -22.1744319015  MEMB      117             0.0000000000
     14418       117  PMPG      OC3           -17.9003628796       -5.1895634833      -21.3177143717  MEMB      117             0.0000000000
     14419       117  PMPG      HO3           -18.0728222719       -5.4990959861      -20.4254994104  MEMB      117             0.0000000000
     14420       117  PMPG      C12           -15.7165402608       -4.4937173938      -20.3046291397  MEMB      117             0.0000000000
     14421       117  PMPG      H12A          -15.2529326757       -3.5408452977      -19.9583896049  MEMB      117             0.0000000000
     14422       117  PMPG      OC2           -14.7575041436       -5.1845068281      -21.1065646567  MEMB      117             0.0000000000
     14423       117  PMPG      HO2           -14.0945687030       -5.4860375482      -20.4475406311  MEMB      117             0.0000000000
     14424       117  PMPG      C11           -16.0386961798       -5.3213278757      -19.0617686904  MEMB      117             0.0000000000
     14425       117  PMPG      H11A          -15.1988202088       -5.3802436800      -18.3368837434  MEMB      117             0.0000000000
     14426       117  PMPG      H11B          -16.2086727477       -6.3631963710      -19.4080908936  MEMB      117             0.0000000000
     14427       117  PMPG      P             -17.9281495316       -5.7570416304      -17.4165330448  MEMB      117             0.0000000000
     14428       117  PMPG      O13           -17.8373899833       -7.1589948812      -17.8440481322  MEMB      117             0.0000000000
     14429       117  PMPG      O14           -19.3211427092       -5.2089809430      -17.3085332812  MEMB      117             0.0000000000
     14430       117  PMPG      O11           -17.1697899171       -5.5654897669      -16.0141243707  MEMB      117             0.0000000000
     14431       117  PMPG      O12           -17.1666121353       -4.7708903209      -18.4403677618  MEMB      117             0.0000000000
     14432       117  PMPG      C1            -16.4612966850       -4.3760985389      -15.7846934942  MEMB      117             0.0000000000
     14433       117  PMPG      HA            -17.0036134329       -3.4597100836      -16.1016253581  MEMB      117             0.0000000000
     14434       117  PMPG      HB            -15.5196971255       -4.4888414828      -16.3634856491  MEMB      117             0.0000000000
     14435       117  PMPG      C2            -16.1828350278       -4.3519261332      -14.2603678921  MEMB      117             0.0000000000
     14436       117  PMPG      HS            -15.3290862635       -3.6582200352      -14.1047863518  MEMB      117             0.0000000000
     14437       117  PMPG      O21           -15.7971749063       -5.6397229375      -13.8140015843  MEMB      117             0.0000000000
     14438       117  PMPG      C21           -14.5489755821       -6.0887783846      -14.0986971965  MEMB      117             0.0000000000
     14439       117  PMPG      O22           -13.7446429840       -5.5056462216      -14.7416531925  MEMB      117             0.0000000000
     14440       117  PMPG      C22           -14.3186740889       -7.3636419709      -13.4178441379  MEMB      117             0.0000000000
     14441       117  PMPG      H2R           -14.1148523718       -8.1484697298      -14.1773326484  MEMB      117             0.0000000000
     14442       117  PMPG      H2S           -15.2004753895       -7.6551439436      -12.8081109698  MEMB      117             0.0000000000
     14443       117  PMPG      C3            -17.4288405718       -3.7580260403      -13.4836493325  MEMB      117             0.0000000000
     14444       117  PMPG      HX            -18.2869554988       -4.4435262340      -13.6511284417  MEMB      117             0.0000000000
     14445       117  PMPG      HY            -17.7592402449       -2.8591275717      -14.0468002499  MEMB      117             0.0000000000
     14446       117  PMPG      O31           -16.9601806955       -3.5789986369      -12.1302994588  MEMB      117             0.0000000000
     14447       117  PMPG      C31           -17.9935540038       -3.3272095927      -11.2245023011  MEMB      117             0.0000000000
     14448       117  PMPG      O32           -19.1556407554       -3.2512903514      -11.5400381080  MEMB      117             0.0000000000
     14449       117  PMPG      C32           -17.3493464180       -2.9527437003       -9.8681823725  MEMB      117             0.0000000000
     14450       117  PMPG      H2X           -17.1262447439       -1.8660238237       -9.9280713821  MEMB      117             0.0000000000
     14451       117  PMPG      H2Y           -16.3769319747       -3.4552626062       -9.6779040692  MEMB      117             0.0000000000
     14452       117  PMPG      C23           -13.1849197166       -7.2546996157      -12.3634961754  MEMB      117             0.0000000000
     14453       117  PMPG      H3R           -12.3033009952       -6.6907246168      -12.7363255158  MEMB      117             0.0000000000
     14454       117  PMPG      H3S           -12.8079345732       -8.2279272328      -11.9826671500  MEMB      117             0.0000000000
     14455       117  PMPG      C24           -13.7335325743       -6.4968013452      -11.0501802738  MEMB      117             0.0000000000
     14456       117  PMPG      H4R           -14.6028492416       -7.0560263563      -10.6429001067  MEMB      117             0.0000000000
     14457       117  PMPG      H4S           -14.0950320528       -5.5012512202      -11.3856191691  MEMB      117             0.0000000000
     14458       117  PMPG      C25           -12.7339724346       -6.3615576569       -9.9633756215  MEMB      117             0.0000000000
     14459       117  PMPG      H5R           -12.0199506142       -5.6000373522      -10.3436134320  MEMB      117             0.0000000000
     14460       117  PMPG      H5S           -12.2044369524       -7.3033120805       -9.7045083791  MEMB      117             0.0000000000
     14461       117  PMPG      C26           -13.3168535476       -5.9335418953       -8.5507062026  MEMB      117             0.0000000000
     14462       117  PMPG      H6R           -12.5428064567       -5.6989592325       -7.7890347283  MEMB      117             0.0000000000
     14463       117  PMPG      H6S           -13.9669898499       -6.7716496397       -8.2202223999  MEMB      117             0.0000000000
     14464       117  PMPG      C27           -14.1951961512       -4.6935020197       -8.6938432580  MEMB      117             0.0000000000
     14465       117  PMPG      H7R           -14.8695463097       -4.6189200989       -7.8140650630  MEMB      117             0.0000000000
     14466       117  PMPG      H7S           -14.9277647600       -4.8726859134       -9.5096603479  MEMB      117             0.0000000000
     14467       117  PMPG      C28           -13.4767325334       -3.3464748570       -8.9190142750  MEMB      117             0.0000000000
     14468       117  PMPG      H8R           -14.2986673793       -2.6813748643       -9.2601684005  MEMB      117             0.0000000000
     14469       117  PMPG      H8S           -12.7671445403       -3.3740834451       -9.7734400824  MEMB      117             0.0000000000
     14470       117  PMPG      C29           -12.7637577262       -3.0058838066       -7.6334700152  MEMB      117             0.0000000000
     14471       117  PMPG      H9R           -11.8016720896       -3.5470934893       -7.5077560008  MEMB      117             0.0000000000
     14472       117  PMPG      C217          -12.6352661502       -1.5317215735       -7.3249109390  MEMB      117             0.0000000000
     14473       117  PMPG      H17R          -11.8978971986       -1.2472257663       -6.5844806515  MEMB      117             0.0000000000
     14474       117  PMPG      H17S          -13.0562939212       -0.7774152796       -7.9780932056  MEMB      117             0.0000000000
     14475       117  PMPG      C210          -13.5379437066       -2.4327895839       -6.5060654098  MEMB      117             0.0000000000
     14476       117  PMPG      H10R          -13.0811680963       -2.7416046928       -5.5415394945  MEMB      117             0.0000000000
     14477       117  PMPG      C211          -14.9898374446       -1.9230315609       -6.5819321723  MEMB      117             0.0000000000
     14478       117  PMPG      H11R          -15.1328914027       -1.5652326979       -7.6239664884  MEMB      117             0.0000000000
     14479       117  PMPG      H11S          -15.6915676163       -2.7626149649       -6.3895900920  MEMB      117             0.0000000000
     14480       117  PMPG      C212          -15.2323224337       -0.9191248951       -5.5796872303  MEMB      117             0.0000000000
     14481       117  PMPG      H12R          -16.1469909090       -0.3760819586       -5.9003229550  MEMB      117             0.0000000000
     14482       117  PMPG      H12S          -14.4784783144       -0.1032779126       -5.6005108613  MEMB      117             0.0000000000
     14483       117  PMPG      C213          -15.4865206042       -1.2753678039       -4.1598800037  MEMB      117             0.0000000000
     14484       117  PMPG      H13R          -16.3601129344       -1.9617726290       -4.1622731389  MEMB      117             0.0000000000
     14485       117  PMPG      H13S          -15.8737146421       -0.2816163046       -3.8486579033  MEMB      117             0.0000000000
     14486       117  PMPG      C214          -14.3084270610       -1.6795565013       -3.3182858190  MEMB      117             0.0000000000
     14487       117  PMPG      H14R          -13.4952054673       -1.0704178422       -3.7676652140  MEMB      117             0.0000000000
     14488       117  PMPG      H14S          -14.0750396331       -2.7653769294       -3.2892142616  MEMB      117             0.0000000000
     14489       117  PMPG      C215          -14.3917549644       -1.1084460481       -1.8994456640  MEMB      117             0.0000000000
     14490       117  PMPG      H15R          -14.8975950914       -0.1219831395       -1.9725035238  MEMB      117             0.0000000000
     14491       117  PMPG      H15S          -13.3186015883       -1.0839258058       -1.6129802226  MEMB      117             0.0000000000
     14492       117  PMPG      C216          -15.0911664417       -2.0165097272       -0.9326761059  MEMB      117             0.0000000000
     14493       117  PMPG      H16R          -15.1594946282       -1.4572566949        0.0248658623  MEMB      117             0.0000000000
     14494       117  PMPG      H16S          -14.4407176029       -2.8911103827       -0.7174761617  MEMB      117             0.0000000000
     14495       117  PMPG      H16T          -16.1581163133       -2.2931224735       -1.0720491010  MEMB      117             0.0000000000
     14496       117  PMPG      C33           -18.3995845952       -3.1999516530       -8.7686440871  MEMB      117             0.0000000000
     14497       117  PMPG      H3X           -19.3117834086       -2.5948834850       -8.9586622550  MEMB      117             0.0000000000
     14498       117  PMPG      H3Y           -18.0020549763       -2.8427133648       -7.7946455076  MEMB      117             0.0000000000
     14499       117  PMPG      C34           -18.7931370600       -4.6488122650       -8.4434381455  MEMB      117             0.0000000000
     14500       117  PMPG      H4X           -17.9357658655       -5.3206508539       -8.6622265535  MEMB      117             0.0000000000
     14501       117  PMPG      H4Y           -19.6037936852       -4.8586966623       -9.1735787964  MEMB      117             0.0000000000
     14502       117  PMPG      C35           -19.4335897033       -4.9260563642       -7.0374671390  MEMB      117             0.0000000000
     14503       117  PMPG      H5X           -19.9234962112       -5.9227088575       -7.0690328842  MEMB      117             0.0000000000
     14504       117  PMPG      H5Y           -20.1384811961       -4.0700663344       -6.9686929970  MEMB      117             0.0000000000
     14505       117  PMPG      C36           -18.5069435115       -4.7306730981       -5.8579055271  MEMB      117             0.0000000000
     14506       117  PMPG      H6X           -19.1090124629       -4.7576410551       -4.9245751033  MEMB      117             0.0000000000
     14507       117  PMPG      H6Y           -18.1195229655       -3.6964358539       -5.9786527900  MEMB      117             0.0000000000
     14508       117  PMPG      C37           -17.3080449998       -5.7016721745       -5.7851879130  MEMB      117             0.0000000000
     14509       117  PMPG      H7X           -16.7953430781       -5.2862889509       -6.6790081873  MEMB      117             0.0000000000
     14510       117  PMPG      H7Y           -17.5501945232       -6.7705425267       -5.9673998353  MEMB      117             0.0000000000
     14511       117  PMPG      C38           -16.4504224580       -5.5078689988       -4.5446540588  MEMB      117             0.0000000000
     14512       117  PMPG      H8X           -16.2266893434       -4.4605861853       -4.2489130494  MEMB      117             0.0000000000
     14513       117  PMPG      H8Y           -15.4921676389       -6.0486405256       -4.6983905219  MEMB      117             0.0000000000
     14514       117  PMPG      C39           -17.0265828119       -6.2995991985       -3.3596607098  MEMB      117             0.0000000000
     14515       117  PMPG      H9X           -16.7342617319       -7.3579179756       -3.5294560508  MEMB      117             0.0000000000
     14516       117  PMPG      H9Y           -18.1221857513       -6.1327994612       -3.2812203114  MEMB      117             0.0000000000
     14517       117  PMPG      C310          -16.4915411263       -5.9619828609       -2.0061801521  MEMB      117             0.0000000000
     14518       117  PMPG      H10X          -16.7354719832       -4.9081048565       -1.7528804964  MEMB      117             0.0000000000
     14519       117  PMPG      H10Y          -15.3809441315       -5.9380492547       -2.0241327722  MEMB      117             0.0000000000
     14520       117  PMPG      C311          -17.0127238686       -6.8672187212       -0.9058023005  MEMB      117             0.0000000000
     14521       117  PMPG      H11X          -16.3722612200       -6.6855641915       -0.0163483770  MEMB      117             0.0000000000
     14522       117  PMPG      H11Y          -16.8001853126       -7.8361811127       -1.4060645897  MEMB      117             0.0000000000
     14523       117  PMPG      C312          -18.5076323791       -6.8843618286       -0.5860600343  MEMB      117             0.0000000000
     14524       117  PMPG      H12X          -18.6888501569       -7.5011848749        0.3200363365  MEMB      117             0.0000000000
     14525       117  PMPG      H12Y          -18.9288096593       -7.5259187142       -1.3893893332  MEMB      117             0.0000000000
     14526       117  PMPG      C313          -19.1802790031       -5.5570548626       -0.3772603091  MEMB      117             0.0000000000
     14527       117  PMPG      H13X          -20.2009751807       -5.7333174717        0.0245248388  MEMB      117             0.0000000000
     14528       117  PMPG      H13Y          -19.3309443425       -5.0281834935       -1.3426183112  MEMB      117             0.0000000000
     14529       117  PMPG      C314          -18.5634040274       -4.5875585350        0.6624235680  MEMB      117             0.0000000000
     14530       117  PMPG      H14X          -17.7525093681       -4.0694055915        0.1071871243  MEMB      117             0.0000000000
     14531       117  PMPG      H14Y          -18.2085895059       -5.2050092638        1.5151741125  MEMB      117             0.0000000000
     14532       117  PMPG      C315          -19.5796914188       -3.4440029586        1.0983468045  MEMB      117             0.0000000000
     14533       117  PMPG      H15X          -20.1214704230       -3.0364555575        0.2181751328  MEMB      117             0.0000000000
     14534       117  PMPG      H15Y          -19.0320816481       -2.5730611452        1.5177571745  MEMB      117             0.0000000000
     14535       117  PMPG      C316          -20.6223915192       -3.8177770111        2.1366978907  MEMB      117             0.0000000000
     14536       117  PMPG      H16X          -21.3959710125       -3.0263362175        2.2342536245  MEMB      117             0.0000000000
     14537       117  PMPG      H16Y          -20.1303903222       -3.9278404442        3.1267196992  MEMB      117             0.0000000000
     14538       117  PMPG      H16Z          -21.0840563280       -4.7744699006        1.8112352103  MEMB      117             0.0000000000
     14539       118  PMPE      N               8.7147316090      -17.0239267011      -18.3757479012  MEMB      118             0.0000000000
     14540       118  PMPE      HN1             9.5150072081      -17.6881178944      -18.3727478365  MEMB      118             0.0000000000
     14541       118  PMPE      HN2             8.0022562436      -17.4436974376      -17.7450569128  MEMB      118             0.0000000000
     14542       118  PMPE      HN3             8.2948769588      -16.8947761659      -19.3184261696  MEMB      118             0.0000000000
     14543       118  PMPE      C12             9.4037875046      -15.7114593801      -18.0074018100  MEMB      118             0.0000000000
     14544       118  PMPE      H12A            9.6703449938      -15.7607339892      -16.9299789004  MEMB      118             0.0000000000
     14545       118  PMPE      H12B            8.5887954824      -14.9636706714      -18.1119058969  MEMB      118             0.0000000000
     14546       118  PMPE      C11            10.5724365702      -15.3755369642      -18.9365437591  MEMB      118             0.0000000000
     14547       118  PMPE      H11A           10.1565065261      -15.6416468128      -19.9317868090  MEMB      118             0.0000000000
     14548       118  PMPE      H11B           11.3423061193      -16.0769369058      -18.5496845191  MEMB      118             0.0000000000
     14549       118  PMPE      P              11.9829943720      -13.2874999847      -19.4081450017  MEMB      118             0.0000000000
     14550       118  PMPE      O13            11.9351313565      -11.8208635670      -19.3327784669  MEMB      118             0.0000000000
     14551       118  PMPE      O14            12.2217907426      -13.9192982257      -20.7153477159  MEMB      118             0.0000000000
     14552       118  PMPE      O11            13.1907150120      -13.7330875893      -18.4760699915  MEMB      118             0.0000000000
     14553       118  PMPE      O12            10.7499104320      -13.9967387870      -18.7479653539  MEMB      118             0.0000000000
     14554       118  PMPE      C1             13.9274877574      -12.9683515918      -17.5732837450  MEMB      118             0.0000000000
     14555       118  PMPE      HA             13.9783649596      -11.9281108855      -17.9601064670  MEMB      118             0.0000000000
     14556       118  PMPE      HB             14.9027920472      -13.4973031740      -17.5157266832  MEMB      118             0.0000000000
     14557       118  PMPE      C2             13.3474464494      -12.9760634566      -16.1268197435  MEMB      118             0.0000000000
     14558       118  PMPE      HS             14.0520293019      -12.4032330357      -15.4867032311  MEMB      118             0.0000000000
     14559       118  PMPE      O21            13.2395944353      -14.3611014701      -15.7774988349  MEMB      118             0.0000000000
     14560       118  PMPE      C21            13.4792822976      -14.7455887240      -14.4673840727  MEMB      118             0.0000000000
     14561       118  PMPE      O22            13.8947126594      -14.0337732026      -13.6399393486  MEMB      118             0.0000000000
     14562       118  PMPE      C22            12.9702628911      -16.1947401400      -14.3241720673  MEMB      118             0.0000000000
     14563       118  PMPE      H2R            13.5267391754      -16.7963465853      -15.0743223070  MEMB      118             0.0000000000
     14564       118  PMPE      H2S            11.8933756481      -16.1087281391      -14.5834724140  MEMB      118             0.0000000000
     14565       118  PMPE      C3             11.9364943336      -12.4046856562      -16.0023462405  MEMB      118             0.0000000000
     14566       118  PMPE      HX             11.2644323709      -13.0798488242      -16.5740179343  MEMB      118             0.0000000000
     14567       118  PMPE      HY             12.0296782211      -11.4166517964      -16.5017725328  MEMB      118             0.0000000000
     14568       118  PMPE      O31            11.5644347742      -12.1505789676      -14.7311557759  MEMB      118             0.0000000000
     14569       118  PMPE      C31            10.8143878191      -12.9528143852      -14.0698994634  MEMB      118             0.0000000000
     14570       118  PMPE      O32            10.4669696078      -14.0887796637      -14.4163592673  MEMB      118             0.0000000000
     14571       118  PMPE      C32            10.6178141101      -12.2875742652      -12.6860879466  MEMB      118             0.0000000000
     14572       118  PMPE      H2X            10.0956279152      -11.3331460204      -12.9112754373  MEMB      118             0.0000000000
     14573       118  PMPE      H2Y            11.6232033041      -12.1941491863      -12.2226381875  MEMB      118             0.0000000000
     14574       118  PMPE      C23            12.9464358542      -16.6313443844      -12.8852549801  MEMB      118             0.0000000000
     14575       118  PMPE      H3R            12.1392965947      -17.3868211749      -12.7752456624  MEMB      118             0.0000000000
     14576       118  PMPE      H3S            12.8432514004      -15.7178887840      -12.2613379069  MEMB      118             0.0000000000
     14577       118  PMPE      C24            14.2526123659      -17.2566998397      -12.5269827739  MEMB      118             0.0000000000
     14578       118  PMPE      H4R            15.0721648820      -16.7873451730      -13.1120985862  MEMB      118             0.0000000000
     14579       118  PMPE      H4S            14.3968760057      -18.3180525739      -12.8220057251  MEMB      118             0.0000000000
     14580       118  PMPE      C25            14.6387520558      -17.2731310768      -11.0208392316  MEMB      118             0.0000000000
     14581       118  PMPE      H5R            15.6671091556      -17.6831892813      -10.9278059645  MEMB      118             0.0000000000
     14582       118  PMPE      H5S            13.9187827790      -17.9384510066      -10.4980436312  MEMB      118             0.0000000000
     14583       118  PMPE      C26            14.5402296586      -15.8894915059      -10.2423451333  MEMB      118             0.0000000000
     14584       118  PMPE      H6R            13.4807962809      -15.5550854130      -10.2326416912  MEMB      118             0.0000000000
     14585       118  PMPE      H6S            15.0896241858      -15.1519738573      -10.8656860106  MEMB      118             0.0000000000
     14586       118  PMPE      C27            15.0931583355      -15.7877190866       -8.8416996323  MEMB      118             0.0000000000
     14587       118  PMPE      H7R            14.7372594848      -14.8730718775       -8.3210484823  MEMB      118             0.0000000000
     14588       118  PMPE      H7S            16.2003766119      -15.8264390141       -8.7586958008  MEMB      118             0.0000000000
     14589       118  PMPE      C28            14.6119937849      -16.8495337245       -7.8125199132  MEMB      118             0.0000000000
     14590       118  PMPE      H8R            15.1948499107      -16.7022125812       -6.8782302532  MEMB      118             0.0000000000
     14591       118  PMPE      H8S            14.9826170403      -17.8345644303       -8.1684331142  MEMB      118             0.0000000000
     14592       118  PMPE      C29            13.1289482447      -16.9985651512       -7.6536128069  MEMB      118             0.0000000000
     14593       118  PMPE      H9R            12.4744471992      -17.0283866529       -8.5508642665  MEMB      118             0.0000000000
     14594       118  PMPE      C217           12.5904461540      -16.3252715988       -6.3559373038  MEMB      118             0.0000000000
     14595       118  PMPE      H17R           11.6301198106      -15.8429835311       -6.4903263965  MEMB      118             0.0000000000
     14596       118  PMPE      H17S           13.3072978963      -16.0692888279       -5.5855565289  MEMB      118             0.0000000000
     14597       118  PMPE      C210           12.4680586135      -17.7894119198       -6.5321242814  MEMB      118             0.0000000000
     14598       118  PMPE      H10R           11.5129344042      -18.2258636695       -6.8948482933  MEMB      118             0.0000000000
     14599       118  PMPE      C211           13.4688219270      -18.8188472006       -5.9061432444  MEMB      118             0.0000000000
     14600       118  PMPE      H11R           14.1650186770      -18.3863238336       -5.1561069182  MEMB      118             0.0000000000
     14601       118  PMPE      H11S           14.0840826369      -19.3262987225       -6.6796207251  MEMB      118             0.0000000000
     14602       118  PMPE      C212           12.5827887269      -19.9383150239       -5.3292647661  MEMB      118             0.0000000000
     14603       118  PMPE      H12R           13.2432382662      -20.8298925555       -5.3859876541  MEMB      118             0.0000000000
     14604       118  PMPE      H12S           11.8039259966      -20.1786873341       -6.0841923110  MEMB      118             0.0000000000
     14605       118  PMPE      C213           11.9957829623      -19.7954981354       -3.9099655988  MEMB      118             0.0000000000
     14606       118  PMPE      H13R           12.7462457777      -19.3950179826       -3.1953035970  MEMB      118             0.0000000000
     14607       118  PMPE      H13S           11.7878035402      -20.8140854726       -3.5181155658  MEMB      118             0.0000000000
     14608       118  PMPE      C214           10.6619815540      -19.0397734343       -3.9980314571  MEMB      118             0.0000000000
     14609       118  PMPE      H14R            9.9032827646      -19.5634016321       -4.6181211871  MEMB      118             0.0000000000
     14610       118  PMPE      H14S           10.8410844009      -18.1209867382       -4.5964252801  MEMB      118             0.0000000000
     14611       118  PMPE      C215           10.0664586738      -18.5487021063       -2.6129547558  MEMB      118             0.0000000000
     14612       118  PMPE      H15R           10.7150040017      -18.0086158264       -1.8904476699  MEMB      118             0.0000000000
     14613       118  PMPE      H15S            9.6609656605      -19.4488743740       -2.1034577365  MEMB      118             0.0000000000
     14614       118  PMPE      C216            8.8764124387      -17.6878048269       -2.7955935480  MEMB      118             0.0000000000
     14615       118  PMPE      H16R            7.9150040128      -18.1484468640       -3.1083618912  MEMB      118             0.0000000000
     14616       118  PMPE      H16S            8.5678912393      -16.9912853904       -1.9868933239  MEMB      118             0.0000000000
     14617       118  PMPE      H16T            9.0596305155      -17.1105602173       -3.7270130674  MEMB      118             0.0000000000
     14618       118  PMPE      C33             9.8945949455      -13.1811830600      -11.6636902894  MEMB      118             0.0000000000
     14619       118  PMPE      H3X            10.0275839125      -14.2709282531      -11.8342494025  MEMB      118             0.0000000000
     14620       118  PMPE      H3Y             8.7927750143      -13.0569176853      -11.7334888455  MEMB      118             0.0000000000
     14621       118  PMPE      C34            10.2103132760      -12.8889782950      -10.2049859549  MEMB      118             0.0000000000
     14622       118  PMPE      H4X            11.1585735617      -13.3790328589       -9.8968138362  MEMB      118             0.0000000000
     14623       118  PMPE      H4Y             9.3944710819      -13.3048826363       -9.5759026483  MEMB      118             0.0000000000
     14624       118  PMPE      C35            10.2848526614      -11.3984121178       -9.8022305452  MEMB      118             0.0000000000
     14625       118  PMPE      H5X             9.6411849147      -10.6951116542      -10.3726530300  MEMB      118             0.0000000000
     14626       118  PMPE      H5Y            11.3328665566      -11.0633978770       -9.9563510583  MEMB      118             0.0000000000
     14627       118  PMPE      C36             9.9979142706      -11.1538463695       -8.3693643228  MEMB      118             0.0000000000
     14628       118  PMPE      H6X             8.9094737643      -11.2124493276       -8.1544604067  MEMB      118             0.0000000000
     14629       118  PMPE      H6Y            10.2433373955      -10.1001199259       -8.1168779418  MEMB      118             0.0000000000
     14630       118  PMPE      C37            10.7494043986      -12.1077660876       -7.4276727463  MEMB      118             0.0000000000
     14631       118  PMPE      H7X            11.8205474318      -12.0375089292       -7.7140946935  MEMB      118             0.0000000000
     14632       118  PMPE      H7Y            10.4789631580      -13.1378413637       -7.7441017072  MEMB      118             0.0000000000
     14633       118  PMPE      C38            10.4614575073      -11.8920963060       -5.9076375475  MEMB      118             0.0000000000
     14634       118  PMPE      H8X             9.4250023325      -12.2624784610       -5.7563137701  MEMB      118             0.0000000000
     14635       118  PMPE      H8Y            10.4720207610      -10.7997316478       -5.7052789361  MEMB      118             0.0000000000
     14636       118  PMPE      C39            11.3795916465      -12.7067518500       -5.1327738897  MEMB      118             0.0000000000
     14637       118  PMPE      H9X            12.3071015427      -12.0998698121       -5.2085408529  MEMB      118             0.0000000000
     14638       118  PMPE      H9Y            11.7335103617      -13.6455710191       -5.6099337826  MEMB      118             0.0000000000
     14639       118  PMPE      C310           11.1178045605      -12.7747231571       -3.6698628730  MEMB      118             0.0000000000
     14640       118  PMPE      H10X           10.7353060089      -11.7607135872       -3.4253222185  MEMB      118             0.0000000000
     14641       118  PMPE      H10Y           12.0318201588      -12.9513422865       -3.0634787398  MEMB      118             0.0000000000
     14642       118  PMPE      C311           10.0659738013      -13.7464606616       -3.2830520766  MEMB      118             0.0000000000
     14643       118  PMPE      H11X           10.4986078114      -14.7697406637       -3.2762067468  MEMB      118             0.0000000000
     14644       118  PMPE      H11Y            9.2961985419      -13.7407734473       -4.0841352686  MEMB      118             0.0000000000
     14645       118  PMPE      C312            9.2828074375      -13.5142409730       -1.9455036537  MEMB      118             0.0000000000
     14646       118  PMPE      H12X            8.2311483928      -13.7986194314       -2.1633629266  MEMB      118             0.0000000000
     14647       118  PMPE      H12Y            9.2796771631      -12.4476406407       -1.6345770604  MEMB      118             0.0000000000
     14648       118  PMPE      C313            9.8348706112      -14.3182332304       -0.7267941552  MEMB      118             0.0000000000
     14649       118  PMPE      H13X           10.6645713133      -13.7048318949       -0.3149003711  MEMB      118             0.0000000000
     14650       118  PMPE      H13Y           10.2636466308      -15.3093155939       -0.9880000485  MEMB      118             0.0000000000
     14651       118  PMPE      C314            8.7325544014      -14.5256817594        0.3493040853  MEMB      118             0.0000000000
     14652       118  PMPE      H14X            9.0556738597      -14.9489498840        1.3243711020  MEMB      118             0.0000000000
     14653       118  PMPE      H14Y            7.9017062814      -15.1863670259        0.0214206296  MEMB      118             0.0000000000
     14654       118  PMPE      C315            8.0275872685      -13.1243204681        0.6589607821  MEMB      118             0.0000000000
     14655       118  PMPE      H15X            7.2634999229      -13.3055548369        1.4448646431  MEMB      118             0.0000000000
     14656       118  PMPE      H15Y            7.5077934322      -12.6957619379       -0.2244843623  MEMB      118             0.0000000000
     14657       118  PMPE      C316            8.9024565941      -12.0630389586        1.2812422762  MEMB      118             0.0000000000
     14658       118  PMPE      H16X            9.2016291479      -12.4308258977        2.2860056574  MEMB      118             0.0000000000
     14659       118  PMPE      H16Y            8.3188513684      -11.1325994374        1.4485990980  MEMB      118             0.0000000000
     14660       118  PMPE      H16Z            9.8166484996      -11.7747854157        0.7195623538  MEMB      118             0.0000000000
     14661       119  PMPE      N              -5.7424321259      -17.9159897144      -21.7284074194  MEMB      119             0.0000000000
     14662       119  PMPE      HN1            -5.5045392120      -18.7061593101      -22.3613681006  MEMB      119             0.0000000000
     14663       119  PMPE      HN2            -6.5751045463      -18.1610252654      -21.1555077859  MEMB      119             0.0000000000
     14664       119  PMPE      HN3            -5.8679795864      -17.0586597475      -22.3035798446  MEMB      119             0.0000000000
     14665       119  PMPE      C12            -4.6040678045      -17.7324527261      -20.6780709872  MEMB      119             0.0000000000
     14666       119  PMPE      H12A           -3.6992752192      -17.4943798202      -21.2772306751  MEMB      119             0.0000000000
     14667       119  PMPE      H12B           -4.3358957437      -18.6171798781      -20.0619031327  MEMB      119             0.0000000000
     14668       119  PMPE      C11            -4.9079306899      -16.4955919164      -19.6652715395  MEMB      119             0.0000000000
     14669       119  PMPE      H11A           -4.7498083704      -15.5952691165      -20.2967279126  MEMB      119             0.0000000000
     14670       119  PMPE      H11B           -4.1621391423      -16.5684552422      -18.8450234786  MEMB      119             0.0000000000
     14671       119  PMPE      P              -6.6398673868      -17.6066461377      -17.9702708917  MEMB      119             0.0000000000
     14672       119  PMPE      O13            -6.8775116829      -18.9081496350      -18.7095535173  MEMB      119             0.0000000000
     14673       119  PMPE      O14            -7.7909708968      -17.1911793918      -17.1691175759  MEMB      119             0.0000000000
     14674       119  PMPE      O11            -5.3225343036      -17.6312308796      -16.9849640409  MEMB      119             0.0000000000
     14675       119  PMPE      O12            -6.2112856695      -16.5507067983      -19.0943440351  MEMB      119             0.0000000000
     14676       119  PMPE      C1             -5.0121336334      -18.8762044916      -16.4197720774  MEMB      119             0.0000000000
     14677       119  PMPE      HA             -3.9885447770      -18.7338161912      -16.0119580517  MEMB      119             0.0000000000
     14678       119  PMPE      HB             -4.8702238428      -19.7169569908      -17.1320344967  MEMB      119             0.0000000000
     14679       119  PMPE      C2             -5.9734253596      -19.1157802511      -15.2127986340  MEMB      119             0.0000000000
     14680       119  PMPE      HS             -6.9898229437      -19.4317342101      -15.5312794128  MEMB      119             0.0000000000
     14681       119  PMPE      O21            -6.0837597092      -17.9130696834      -14.4193283580  MEMB      119             0.0000000000
     14682       119  PMPE      C21            -7.2282852901      -17.6443735370      -13.8390781853  MEMB      119             0.0000000000
     14683       119  PMPE      O22            -8.2582246995      -18.2697692847      -13.8551402595  MEMB      119             0.0000000000
     14684       119  PMPE      C22            -7.0976664666      -16.2174615002      -13.4279318736  MEMB      119             0.0000000000
     14685       119  PMPE      H2R            -7.9902771788      -15.7421676520      -13.8880000956  MEMB      119             0.0000000000
     14686       119  PMPE      H2S            -6.2475832479      -15.7074630598      -13.9295105113  MEMB      119             0.0000000000
     14687       119  PMPE      C3             -5.6193327750      -20.3035859758      -14.2311731682  MEMB      119             0.0000000000
     14688       119  PMPE      HX             -5.3538105313      -21.2279909323      -14.7873153285  MEMB      119             0.0000000000
     14689       119  PMPE      HY             -6.5189655410      -20.5887945213      -13.6449666724  MEMB      119             0.0000000000
     14690       119  PMPE      O31            -4.5631139964      -19.9921669900      -13.3118469481  MEMB      119             0.0000000000
     14691       119  PMPE      C31            -4.9082506467      -19.5510436378      -12.0434804172  MEMB      119             0.0000000000
     14692       119  PMPE      O32            -6.1259855191      -19.3977523886      -11.7458447508  MEMB      119             0.0000000000
     14693       119  PMPE      C32            -3.6735892504      -19.4263509591      -11.1375840113  MEMB      119             0.0000000000
     14694       119  PMPE      H2X            -3.3004861948      -18.4563680135      -11.5303286606  MEMB      119             0.0000000000
     14695       119  PMPE      H2Y            -2.9070341040      -20.2204115459      -11.2647937569  MEMB      119             0.0000000000
     14696       119  PMPE      C23            -7.1425389585      -16.2115286410      -11.8643230489  MEMB      119             0.0000000000
     14697       119  PMPE      H3R            -6.1354151100      -16.5856369478      -11.5813647851  MEMB      119             0.0000000000
     14698       119  PMPE      H3S            -8.0223080600      -16.8228568540      -11.5700357020  MEMB      119             0.0000000000
     14699       119  PMPE      C24            -7.4367502270      -14.8065372729      -11.3573853482  MEMB      119             0.0000000000
     14700       119  PMPE      H4R            -8.3843205892      -14.5850829321      -11.8934727253  MEMB      119             0.0000000000
     14701       119  PMPE      H4S            -6.5920480864      -14.1776882540      -11.7114310125  MEMB      119             0.0000000000
     14702       119  PMPE      C25            -7.6365165926      -14.5853967068       -9.9506921206  MEMB      119             0.0000000000
     14703       119  PMPE      H5R            -6.6258928011      -14.7657327097       -9.5259106731  MEMB      119             0.0000000000
     14704       119  PMPE      H5S            -8.3102069183      -15.3651764419       -9.5354738807  MEMB      119             0.0000000000
     14705       119  PMPE      C26            -8.1618812864      -13.2309694622       -9.4396630835  MEMB      119             0.0000000000
     14706       119  PMPE      H6R            -9.1260459636      -12.9555797546       -9.9180640377  MEMB      119             0.0000000000
     14707       119  PMPE      H6S            -7.4144606854      -12.4389868626       -9.6597704753  MEMB      119             0.0000000000
     14708       119  PMPE      C27            -8.3109760721      -13.0706193576       -7.9041917600  MEMB      119             0.0000000000
     14709       119  PMPE      H7R            -9.1562445534      -13.6394872287       -7.4612122025  MEMB      119             0.0000000000
     14710       119  PMPE      H7S            -8.4585975789      -11.9807624421       -7.7468976360  MEMB      119             0.0000000000
     14711       119  PMPE      C28            -6.9939396586      -13.3771213568       -7.1521398105  MEMB      119             0.0000000000
     14712       119  PMPE      H8R            -6.1255026361      -12.8267965547       -7.5731877051  MEMB      119             0.0000000000
     14713       119  PMPE      H8S            -6.9469169012      -14.4750113822       -7.3156867767  MEMB      119             0.0000000000
     14714       119  PMPE      C29            -7.2569768711      -13.0177653168       -5.6391981042  MEMB      119             0.0000000000
     14715       119  PMPE      H9R            -7.5172070972      -11.9519569504       -5.4641171490  MEMB      119             0.0000000000
     14716       119  PMPE      C217           -6.4255976884      -13.7538374836       -4.6324562451  MEMB      119             0.0000000000
     14717       119  PMPE      H17R           -6.2170845935      -13.2320545713       -3.7066307627  MEMB      119             0.0000000000
     14718       119  PMPE      H17S           -5.8163496021      -14.5398917935       -5.0612044523  MEMB      119             0.0000000000
     14719       119  PMPE      C210           -7.8622021540      -14.0543244063       -4.7376766843  MEMB      119             0.0000000000
     14720       119  PMPE      H10R           -8.4313535208      -13.6596570421       -3.8689855611  MEMB      119             0.0000000000
     14721       119  PMPE      C211           -8.1631737036      -15.4649707572       -5.2913848200  MEMB      119             0.0000000000
     14722       119  PMPE      H11R           -7.3428781703      -15.7983006240       -5.9624491204  MEMB      119             0.0000000000
     14723       119  PMPE      H11S           -9.1759011589      -15.4473251228       -5.7478855986  MEMB      119             0.0000000000
     14724       119  PMPE      C212           -8.2438295926      -16.5314099424       -4.1920585661  MEMB      119             0.0000000000
     14725       119  PMPE      H12R           -7.2260225978      -16.5605996369       -3.7476063833  MEMB      119             0.0000000000
     14726       119  PMPE      H12S           -8.2622829443      -17.5101473249       -4.7174666005  MEMB      119             0.0000000000
     14727       119  PMPE      C213           -9.3271690067      -16.3940079808       -3.1002830177  MEMB      119             0.0000000000
     14728       119  PMPE      H13R          -10.3070037025      -16.4037363575       -3.6238759594  MEMB      119             0.0000000000
     14729       119  PMPE      H13S           -9.1476685088      -15.3953973625       -2.6476491196  MEMB      119             0.0000000000
     14730       119  PMPE      C214           -9.1271976597      -17.5050233194       -2.1574064402  MEMB      119             0.0000000000
     14731       119  PMPE      H14R           -8.1742246876      -17.2456957371       -1.6485728650  MEMB      119             0.0000000000
     14732       119  PMPE      H14S           -9.0441615988      -18.4752875838       -2.6922089755  MEMB      119             0.0000000000
     14733       119  PMPE      C215          -10.2336269982      -17.5791651320       -1.0879840779  MEMB      119             0.0000000000
     14734       119  PMPE      H15R          -11.1207936335      -18.0848762935       -1.5256067144  MEMB      119             0.0000000000
     14735       119  PMPE      H15S          -10.5317346295      -16.5676928251       -0.7381605573  MEMB      119             0.0000000000
     14736       119  PMPE      C216           -9.6663726649      -18.2668703882        0.2181035064  MEMB      119             0.0000000000
     14737       119  PMPE      H16R          -10.3552933653      -18.2027344602        1.0873547801  MEMB      119             0.0000000000
     14738       119  PMPE      H16S           -9.4896352695      -19.3477912802        0.0318384575  MEMB      119             0.0000000000
     14739       119  PMPE      H16T           -8.7421515204      -17.7579729946        0.5661838990  MEMB      119             0.0000000000
     14740       119  PMPE      C33            -4.1589916351      -19.1929003550       -9.7516824719  MEMB      119             0.0000000000
     14741       119  PMPE      H3X            -4.6324155666      -20.1117643950       -9.3443997859  MEMB      119             0.0000000000
     14742       119  PMPE      H3Y            -4.9439081727      -18.4393112371       -9.5273383151  MEMB      119             0.0000000000
     14743       119  PMPE      C34            -3.0555834305      -18.8660580463       -8.7486823438  MEMB      119             0.0000000000
     14744       119  PMPE      H4X            -2.7048539493      -17.8265595619       -8.9240473432  MEMB      119             0.0000000000
     14745       119  PMPE      H4Y            -2.2972140442      -19.6777497133       -8.7674798901  MEMB      119             0.0000000000
     14746       119  PMPE      C35            -3.6874958465      -18.7941931562       -7.3452018122  MEMB      119             0.0000000000
     14747       119  PMPE      H5X            -4.2679763179      -19.7296314811       -7.1958080175  MEMB      119             0.0000000000
     14748       119  PMPE      H5Y            -4.4057462541      -17.9466097146       -7.3515069884  MEMB      119             0.0000000000
     14749       119  PMPE      C36            -2.6757812728      -18.3939386689       -6.2239961155  MEMB      119             0.0000000000
     14750       119  PMPE      H6X            -3.1912399947      -17.8103163854       -5.4315263919  MEMB      119             0.0000000000
     14751       119  PMPE      H6Y            -1.9127699346      -17.8001103870       -6.7712644193  MEMB      119             0.0000000000
     14752       119  PMPE      C37            -2.0033396945      -19.7320410802       -5.7221183961  MEMB      119             0.0000000000
     14753       119  PMPE      H7X            -1.6264526666      -20.3153068378       -6.5893419783  MEMB      119             0.0000000000
     14754       119  PMPE      H7Y            -2.8492593624      -20.3307657233       -5.3217806169  MEMB      119             0.0000000000
     14755       119  PMPE      C38            -0.8512058962      -19.3928964938       -4.7903534816  MEMB      119             0.0000000000
     14756       119  PMPE      H8X             0.0165360022      -19.0024951522       -5.3638787218  MEMB      119             0.0000000000
     14757       119  PMPE      H8Y            -0.5884403079      -20.3852707764       -4.3655375603  MEMB      119             0.0000000000
     14758       119  PMPE      C39            -1.1205945634      -18.4987005718       -3.5880859830  MEMB      119             0.0000000000
     14759       119  PMPE      H9X            -1.2897304616      -17.5001187800       -4.0447569652  MEMB      119             0.0000000000
     14760       119  PMPE      H9Y            -0.1782941248      -18.4849301468       -2.9996961925  MEMB      119             0.0000000000
     14761       119  PMPE      C310           -2.2524895891      -19.0536289673       -2.7413674463  MEMB      119             0.0000000000
     14762       119  PMPE      H10X           -1.8987767423      -19.9196562935       -2.1420308912  MEMB      119             0.0000000000
     14763       119  PMPE      H10Y           -3.1409707792      -19.3434276861       -3.3421498300  MEMB      119             0.0000000000
     14764       119  PMPE      C311           -2.6998853588      -18.0646942329       -1.6466497674  MEMB      119             0.0000000000
     14765       119  PMPE      H11X           -1.8336093037      -17.7567101124       -1.0229250559  MEMB      119             0.0000000000
     14766       119  PMPE      H11Y           -3.4326138915      -18.7019776783       -1.1069295022  MEMB      119             0.0000000000
     14767       119  PMPE      C312           -3.4508920364      -16.8973174653       -2.1673508137  MEMB      119             0.0000000000
     14768       119  PMPE      H12X           -4.0932293200      -17.1536115230       -3.0368541793  MEMB      119             0.0000000000
     14769       119  PMPE      H12Y           -2.8271816846      -16.1256672027       -2.6672126786  MEMB      119             0.0000000000
     14770       119  PMPE      C313           -4.1568542938      -16.0371681159       -1.0591036469  MEMB      119             0.0000000000
     14771       119  PMPE      H13X           -4.9789925628      -16.6296396836       -0.6037059683  MEMB      119             0.0000000000
     14772       119  PMPE      H13Y           -4.5687048753      -15.1293137432       -1.5495125300  MEMB      119             0.0000000000
     14773       119  PMPE      C314           -3.1881578468      -15.6752927233        0.0547379894  MEMB      119             0.0000000000
     14774       119  PMPE      H14X           -2.3530713514      -15.1477082032       -0.4537949354  MEMB      119             0.0000000000
     14775       119  PMPE      H14Y           -2.8658261532      -16.5922255578        0.5929371639  MEMB      119             0.0000000000
     14776       119  PMPE      C315           -3.7525667102      -14.7195337593        1.1214687857  MEMB      119             0.0000000000
     14777       119  PMPE      H15X           -2.9274599341      -14.2015659825        1.6555379394  MEMB      119             0.0000000000
     14778       119  PMPE      H15Y           -4.2458170345      -15.3903622066        1.8570053217  MEMB      119             0.0000000000
     14779       119  PMPE      C316           -4.7683523038      -13.5863226139        0.7076821213  MEMB      119             0.0000000000
     14780       119  PMPE      H16X           -5.6881661836      -14.1149755540        0.3778494534  MEMB      119             0.0000000000
     14781       119  PMPE      H16Y           -4.3915583552      -13.0940919744       -0.2143025914  MEMB      119             0.0000000000
     14782       119  PMPE      H16Z           -4.9928266918      -12.7827799353        1.4413374745  MEMB      119             0.0000000000
     14783       120  PMPE      N              -0.0911795587       20.5421724668      -21.6937071487  MEMB      120             0.0000000000
     14784       120  PMPE      HN1            -0.7913069909       20.4748917546      -20.9276164660  MEMB      120             0.0000000000
     14785       120  PMPE      HN2            -0.0341244364       21.4936655171      -22.1096466251  MEMB      120             0.0000000000
     14786       120  PMPE      HN3            -0.4185479854       19.8869300014      -22.4320073124  MEMB      120             0.0000000000
     14787       120  PMPE      C12             1.1558719922       20.1732243507      -21.0366680901  MEMB      120             0.0000000000
     14788       120  PMPE      H12A            1.3330190940       21.0051462398      -20.3219333996  MEMB      120             0.0000000000
     14789       120  PMPE      H12B            1.9885503782       20.0779437010      -21.7659754666  MEMB      120             0.0000000000
     14790       120  PMPE      C11             1.0028312804       18.9057596128      -20.2636888663  MEMB      120             0.0000000000
     14791       120  PMPE      H11A            2.0400102936       18.6474167259      -19.9606383667  MEMB      120             0.0000000000
     14792       120  PMPE      H11B            0.5680905729       18.0887231913      -20.8783213502  MEMB      120             0.0000000000
     14793       120  PMPE      P               0.5980783355       19.5263357952      -17.7346198335  MEMB      120             0.0000000000
     14794       120  PMPE      O13            -0.6655497898       19.8831307606      -17.0152058055  MEMB      120             0.0000000000
     14795       120  PMPE      O14             1.5722202884       20.5997034136      -17.9801201797  MEMB      120             0.0000000000
     14796       120  PMPE      O11             1.2535942766       18.1897213849      -17.1294525317  MEMB      120             0.0000000000
     14797       120  PMPE      O12             0.0790916196       19.0242426339      -19.1465375446  MEMB      120             0.0000000000
     14798       120  PMPE      C1              0.5125372342       16.9602043840      -17.3418964103  MEMB      120             0.0000000000
     14799       120  PMPE      HA              0.7188242346       16.4421272852      -18.3028141276  MEMB      120             0.0000000000
     14800       120  PMPE      HB             -0.5635921211       17.2062737686      -17.2165309375  MEMB      120             0.0000000000
     14801       120  PMPE      C2              0.6781881417       15.8458611757      -16.2164101962  MEMB      120             0.0000000000
     14802       120  PMPE      HS             -0.0378999499       15.0133157248      -16.3849527720  MEMB      120             0.0000000000
     14803       120  PMPE      O21             0.3731977517       16.4281687656      -14.9074755605  MEMB      120             0.0000000000
     14804       120  PMPE      C21            -0.8685822724       16.2975433711      -14.4374003785  MEMB      120             0.0000000000
     14805       120  PMPE      O22            -1.8304336331       15.8305515790      -14.9902871675  MEMB      120             0.0000000000
     14806       120  PMPE      C22            -0.8695150521       17.1064997122      -13.1471441940  MEMB      120             0.0000000000
     14807       120  PMPE      H2R            -0.3047450087       18.0447238745      -13.3344718718  MEMB      120             0.0000000000
     14808       120  PMPE      H2S            -0.1411040031       16.5434049109      -12.5253223409  MEMB      120             0.0000000000
     14809       120  PMPE      C3              2.0959246962       15.2909364606      -16.3540297674  MEMB      120             0.0000000000
     14810       120  PMPE      HX              2.2549750025       14.8552087496      -17.3635670167  MEMB      120             0.0000000000
     14811       120  PMPE      HY              2.1866185030       14.5179121520      -15.5612316214  MEMB      120             0.0000000000
     14812       120  PMPE      O31             3.0300818494       16.3583129915      -16.1661461007  MEMB      120             0.0000000000
     14813       120  PMPE      C31             3.3603035947       16.6265943871      -14.9544984451  MEMB      120             0.0000000000
     14814       120  PMPE      O32             3.0223791991       15.9533523527      -13.9575805062  MEMB      120             0.0000000000
     14815       120  PMPE      C32             4.3671731869       17.7906973106      -14.9215382104  MEMB      120             0.0000000000
     14816       120  PMPE      H2X             4.0316729507       18.6108181107      -15.5917342189  MEMB      120             0.0000000000
     14817       120  PMPE      H2Y             5.3458246696       17.3550837622      -15.2161616328  MEMB      120             0.0000000000
     14818       120  PMPE      C23            -2.2346690994       17.3764826152      -12.5964827776  MEMB      120             0.0000000000
     14819       120  PMPE      H3R            -2.7122085104       16.4504788542      -12.2107442692  MEMB      120             0.0000000000
     14820       120  PMPE      H3S            -2.9405029200       17.8052451097      -13.3396402272  MEMB      120             0.0000000000
     14821       120  PMPE      C24            -2.1982863974       18.3347268189      -11.3370595964  MEMB      120             0.0000000000
     14822       120  PMPE      H4R            -3.1829539329       18.3746200548      -10.8240691227  MEMB      120             0.0000000000
     14823       120  PMPE      H4S            -1.8267487417       19.2679315833      -11.8118328517  MEMB      120             0.0000000000
     14824       120  PMPE      C25            -1.1743415484       17.7989128824      -10.2610597289  MEMB      120             0.0000000000
     14825       120  PMPE      H5R            -0.1690257470       17.7038862951      -10.7243427814  MEMB      120             0.0000000000
     14826       120  PMPE      H5S            -1.4425237218       16.7503260210      -10.0103310104  MEMB      120             0.0000000000
     14827       120  PMPE      C26            -1.1451957268       18.7631200164       -9.1327497801  MEMB      120             0.0000000000
     14828       120  PMPE      H6R            -0.5151290489       19.5960973294       -9.5115459115  MEMB      120             0.0000000000
     14829       120  PMPE      H6S            -0.6179358990       18.1610847207       -8.3621190014  MEMB      120             0.0000000000
     14830       120  PMPE      C27            -2.4262850568       19.1106370906       -8.4108336659  MEMB      120             0.0000000000
     14831       120  PMPE      H7R            -3.0218883903       18.1732899374       -8.4417835917  MEMB      120             0.0000000000
     14832       120  PMPE      H7S            -2.9380286762       19.9774213776       -8.8810721450  MEMB      120             0.0000000000
     14833       120  PMPE      C28            -2.3844737889       19.4780787262       -6.8494349902  MEMB      120             0.0000000000
     14834       120  PMPE      H8R            -1.9313238597       20.4629515528       -6.6065327430  MEMB      120             0.0000000000
     14835       120  PMPE      H8S            -1.7971707368       18.7230398080       -6.2843576121  MEMB      120             0.0000000000
     14836       120  PMPE      C29            -3.8354152349       19.3832076556       -6.3474783100  MEMB      120             0.0000000000
     14837       120  PMPE      H9R            -4.2441148477       18.3508271760       -6.3090570208  MEMB      120             0.0000000000
     14838       120  PMPE      C217           -4.8520075912       20.4807088092       -6.5668819792  MEMB      120             0.0000000000
     14839       120  PMPE      H17R           -5.8852677136       20.1600477242       -6.6162674198  MEMB      120             0.0000000000
     14840       120  PMPE      H17S           -4.3194762203       21.2599072442       -7.0980582394  MEMB      120             0.0000000000
     14841       120  PMPE      C210           -4.3435648600       20.2473597661       -5.1606977686  MEMB      120             0.0000000000
     14842       120  PMPE      H10R           -5.0420654886       19.7162134341       -4.4793015236  MEMB      120             0.0000000000
     14843       120  PMPE      C211           -3.3518828990       21.2422918359       -4.5423169814  MEMB      120             0.0000000000
     14844       120  PMPE      H11R           -4.0000009193       21.9145809360       -3.9404112014  MEMB      120             0.0000000000
     14845       120  PMPE      H11S           -2.7885978055       21.8897657399       -5.2478728534  MEMB      120             0.0000000000
     14846       120  PMPE      C212           -2.3462877729       20.5209088449       -3.6257817622  MEMB      120             0.0000000000
     14847       120  PMPE      H12R           -1.5303045503       21.2633128367       -3.4941435674  MEMB      120             0.0000000000
     14848       120  PMPE      H12S           -1.9593731739       19.5753674869       -4.0623243499  MEMB      120             0.0000000000
     14849       120  PMPE      C213           -2.8813715423       20.1696609060       -2.2600545000  MEMB      120             0.0000000000
     14850       120  PMPE      H13R           -2.2109097278       19.3570744413       -1.9072015844  MEMB      120             0.0000000000
     14851       120  PMPE      H13S           -3.8742762155       19.7060938537       -2.4432676899  MEMB      120             0.0000000000
     14852       120  PMPE      C214           -2.7857466108       21.4171457412       -1.2845921995  MEMB      120             0.0000000000
     14853       120  PMPE      H14R           -3.3773463337       22.1736999976       -1.8431224356  MEMB      120             0.0000000000
     14854       120  PMPE      H14S           -1.7382840190       21.7615459646       -1.1484610734  MEMB      120             0.0000000000
     14855       120  PMPE      C215           -3.3286822502       21.1675270246        0.1269873580  MEMB      120             0.0000000000
     14856       120  PMPE      H15R           -2.5778311001       20.4683116787        0.5531807877  MEMB      120             0.0000000000
     14857       120  PMPE      H15S           -4.2460680680       20.6020664877       -0.1431582314  MEMB      120             0.0000000000
     14858       120  PMPE      C216           -3.5981675389       22.4204256388        0.9697434138  MEMB      120             0.0000000000
     14859       120  PMPE      H16R           -3.8029108920       23.2861178022        0.3041777290  MEMB      120             0.0000000000
     14860       120  PMPE      H16S           -4.4978986984       22.3585632465        1.6185722992  MEMB      120             0.0000000000
     14861       120  PMPE      H16T           -2.7268905481       22.7090881206        1.5957400740  MEMB      120             0.0000000000
     14862       120  PMPE      C33             4.6418020539       18.2875061598      -13.4782162587  MEMB      120             0.0000000000
     14863       120  PMPE      H3X             5.4270868216       19.0666186115      -13.5813302697  MEMB      120             0.0000000000
     14864       120  PMPE      H3Y             4.9658372821       17.4578916506      -12.8140914783  MEMB      120             0.0000000000
     14865       120  PMPE      C34             3.5080719429       19.1369848261      -12.8067780477  MEMB      120             0.0000000000
     14866       120  PMPE      H4X             2.5230281168       18.6237790751      -12.7816891351  MEMB      120             0.0000000000
     14867       120  PMPE      H4Y             3.3657361586       19.9491983944      -13.5513390695  MEMB      120             0.0000000000
     14868       120  PMPE      C35             3.7493771363       19.7405621449      -11.3506948374  MEMB      120             0.0000000000
     14869       120  PMPE      H5X             2.8798860551       20.4305279559      -11.3032257705  MEMB      120             0.0000000000
     14870       120  PMPE      H5Y             4.7596768652       20.1531023779      -11.1423055584  MEMB      120             0.0000000000
     14871       120  PMPE      C36             3.6643607602       18.6564761715      -10.2710310386  MEMB      120             0.0000000000
     14872       120  PMPE      H6X             4.6089764789       18.0956866006      -10.4369741988  MEMB      120             0.0000000000
     14873       120  PMPE      H6Y             2.7834191460       18.0272520320      -10.5207104392  MEMB      120             0.0000000000
     14874       120  PMPE      C37             3.5943939989       19.3285491057       -8.8999015819  MEMB      120             0.0000000000
     14875       120  PMPE      H7X             4.2965389768       20.1887686869       -8.9364497345  MEMB      120             0.0000000000
     14876       120  PMPE      H7Y             3.9840877053       18.5759316090       -8.1815510353  MEMB      120             0.0000000000
     14877       120  PMPE      C38             2.1613773316       19.7536180598       -8.5389083835  MEMB      120             0.0000000000
     14878       120  PMPE      H8X             1.4579042355       18.9456979263       -8.8333768222  MEMB      120             0.0000000000
     14879       120  PMPE      H8Y             1.9092026331       20.7260517653       -9.0133568215  MEMB      120             0.0000000000
     14880       120  PMPE      C39             1.9430082262       20.0365714824       -7.0115288565  MEMB      120             0.0000000000
     14881       120  PMPE      H9X             0.9936403658       20.6058191719       -6.9167727129  MEMB      120             0.0000000000
     14882       120  PMPE      H9Y             2.8665133663       20.5116922312       -6.6169154788  MEMB      120             0.0000000000
     14883       120  PMPE      C310            1.8617030117       18.7629282439       -6.2162066275  MEMB      120             0.0000000000
     14884       120  PMPE      H10X            2.8468954975       18.3074091472       -5.9791017953  MEMB      120             0.0000000000
     14885       120  PMPE      H10Y            1.1804234124       18.1122355207       -6.8050858459  MEMB      120             0.0000000000
     14886       120  PMPE      C311            1.0657838881       18.8498161217       -4.8566008446  MEMB      120             0.0000000000
     14887       120  PMPE      H11X            1.0275124460       17.7908114104       -4.5228856791  MEMB      120             0.0000000000
     14888       120  PMPE      H11Y            0.0167475353       19.1748092442       -5.0245979280  MEMB      120             0.0000000000
     14889       120  PMPE      C312            1.7751126437       19.6891720109       -3.8730477597  MEMB      120             0.0000000000
     14890       120  PMPE      H12X            1.6232434684       20.7663918814       -4.0985563957  MEMB      120             0.0000000000
     14891       120  PMPE      H12Y            2.8363689022       19.3625173938       -3.8362636521  MEMB      120             0.0000000000
     14892       120  PMPE      C313            1.3507634619       19.5312807662       -2.3977535997  MEMB      120             0.0000000000
     14893       120  PMPE      H13X            0.3822872005       20.0669388358       -2.3005676937  MEMB      120             0.0000000000
     14894       120  PMPE      H13Y            2.1247198644       20.0854519711       -1.8248607005  MEMB      120             0.0000000000
     14895       120  PMPE      C314            1.3953338186       18.0675226243       -1.8663177099  MEMB      120             0.0000000000
     14896       120  PMPE      H14X            2.3959059759       17.7057672068       -2.1861754447  MEMB      120             0.0000000000
     14897       120  PMPE      H14Y            0.6808859120       17.3869779227       -2.3769479643  MEMB      120             0.0000000000
     14898       120  PMPE      C315            1.2461975468       17.7549140212       -0.3670163623  MEMB      120             0.0000000000
     14899       120  PMPE      H15X            1.8283177950       18.5159649365        0.1953526332  MEMB      120             0.0000000000
     14900       120  PMPE      H15Y            1.4873802516       16.6879376781       -0.1728157152  MEMB      120             0.0000000000
     14901       120  PMPE      C316           -0.1979070343       17.8925850196        0.1255984870  MEMB      120             0.0000000000
     14902       120  PMPE      H16X           -0.1720491592       17.7602694463        1.2283868905  MEMB      120             0.0000000000
     14903       120  PMPE      H16Y           -0.8605114838       17.1395391767       -0.3521020576  MEMB      120             0.0000000000
     14904       120  PMPE      H16Z           -0.6231868081       18.9175671409        0.0720282830  MEMB      120             0.0000000000
     14905       121  OYPE      N             -10.8860086408       17.8229186398      -20.5147629096  MEMB      121             0.0000000000
     14906       121  OYPE      HN1           -11.8989456020       17.6117869169      -20.6195594395  MEMB      121             0.0000000000
     14907       121  OYPE      HN2           -10.7367224942       18.8329075072      -20.3166818786  MEMB      121             0.0000000000
     14908       121  OYPE      HN3           -10.4177070885       17.6540009296      -21.4278677757  MEMB      121             0.0000000000
     14909       121  OYPE      C12           -10.3203945079       17.0658407119      -19.3770382559  MEMB      121             0.0000000000
     14910       121  OYPE      H12A          -10.5323762545       15.9875624142      -19.5404422491  MEMB      121             0.0000000000
     14911       121  OYPE      H12B          -10.8239415935       17.3881091923      -18.4406066245  MEMB      121             0.0000000000
     14912       121  OYPE      C11            -8.8687572996       17.3283802067      -19.3923001509  MEMB      121             0.0000000000
     14913       121  OYPE      H11A           -8.3314095776       17.1389427150      -20.3460778444  MEMB      121             0.0000000000
     14914       121  OYPE      H11B           -8.3707045425       16.6587410141      -18.6589190615  MEMB      121             0.0000000000
     14915       121  OYPE      P              -7.1923892505       19.2171001624      -18.5448503127  MEMB      121             0.0000000000
     14916       121  OYPE      O13            -6.5958856179       19.7925909182      -19.7855550291  MEMB      121             0.0000000000
     14917       121  OYPE      O14            -6.3945169559       18.1976630622      -17.8560635520  MEMB      121             0.0000000000
     14918       121  OYPE      O11            -7.6804748167       20.4068441873      -17.6714137075  MEMB      121             0.0000000000
     14919       121  OYPE      O12            -8.6284408345       18.5940277200      -18.8580160854  MEMB      121             0.0000000000
     14920       121  OYPE      C1             -8.9684977440       21.1356966835      -17.6361612241  MEMB      121             0.0000000000
     14921       121  OYPE      HA             -9.6646287262       20.7761990790      -18.4238693686  MEMB      121             0.0000000000
     14922       121  OYPE      HB             -8.8128772569       22.1831421251      -17.9722584523  MEMB      121             0.0000000000
     14923       121  OYPE      C2             -9.7110155384       21.0337215979      -16.2887621717  MEMB      121             0.0000000000
     14924       121  OYPE      HS            -10.5404312510       21.7690259167      -16.3643805569  MEMB      121             0.0000000000
     14925       121  OYPE      O21            -8.8919017791       21.5131686553      -15.2062202868  MEMB      121             0.0000000000
     14926       121  OYPE      C21            -9.5176979995       21.7581474020      -14.0312428724  MEMB      121             0.0000000000
     14927       121  OYPE      O22           -10.6725450335       21.8340040444      -13.6959729869  MEMB      121             0.0000000000
     14928       121  OYPE      C22            -8.3452490473       22.2231613742      -13.0842409996  MEMB      121             0.0000000000
     14929       121  OYPE      H2R            -7.8503664913       23.0296843612      -13.6664201753  MEMB      121             0.0000000000
     14930       121  OYPE      H2S            -7.5813107821       21.4286818710      -12.9445205855  MEMB      121             0.0000000000
     14931       121  OYPE      C3            -10.1592647218       19.5498218312      -16.0006921786  MEMB      121             0.0000000000
     14932       121  OYPE      HX            -10.6850595615       19.0552266930      -16.8452254684  MEMB      121             0.0000000000
     14933       121  OYPE      HY            -10.8754787542       19.7049480092      -15.1656506051  MEMB      121             0.0000000000
     14934       121  OYPE      O31            -9.0116605281       18.7617048450      -15.6606584113  MEMB      121             0.0000000000
     14935       121  OYPE      C31            -9.1862371287       17.6383485855      -14.9072757312  MEMB      121             0.0000000000
     14936       121  OYPE      O32           -10.2464822494       17.0761170976      -14.7113764959  MEMB      121             0.0000000000
     14937       121  OYPE      C32            -7.8979535072       17.1474668029      -14.2458069664  MEMB      121             0.0000000000
     14938       121  OYPE      H2X            -8.1416162195       16.1485975865      -13.8248441974  MEMB      121             0.0000000000
     14939       121  OYPE      H2Y            -7.1822263681       16.9894197775      -15.0807181603  MEMB      121             0.0000000000
     14940       121  OYPE      C23            -8.8686774881       22.6913118731      -11.6993320868  MEMB      121             0.0000000000
     14941       121  OYPE      H3R            -9.3881550354       21.7789739701      -11.3358717128  MEMB      121             0.0000000000
     14942       121  OYPE      H3S            -9.6075302650       23.4817129568      -11.9516887318  MEMB      121             0.0000000000
     14943       121  OYPE      C24            -7.7777044665       23.3338737398      -10.8007846147  MEMB      121             0.0000000000
     14944       121  OYPE      H4R            -7.4839434052       24.3272955677      -11.2022052311  MEMB      121             0.0000000000
     14945       121  OYPE      H4S            -6.8546543898       22.7166937928      -10.8380461176  MEMB      121             0.0000000000
     14946       121  OYPE      C25            -8.2486232223       23.6706137219       -9.3951722188  MEMB      121             0.0000000000
     14947       121  OYPE      H5R            -8.7733164759       22.7621054616       -9.0296171730  MEMB      121             0.0000000000
     14948       121  OYPE      H5S            -9.1137969709       24.3603411064       -9.2948157896  MEMB      121             0.0000000000
     14949       121  OYPE      C26            -7.2344760759       24.0860899803       -8.3045180973  MEMB      121             0.0000000000
     14950       121  OYPE      H6R            -6.5747490285       24.8784792677       -8.7182820898  MEMB      121             0.0000000000
     14951       121  OYPE      H6S            -6.5986814048       23.2182779005       -8.0270505845  MEMB      121             0.0000000000
     14952       121  OYPE      C27            -7.7790669940       24.5563510477       -6.9518000486  MEMB      121             0.0000000000
     14953       121  OYPE      H7R            -8.1022523020       23.6115568099       -6.4647311736  MEMB      121             0.0000000000
     14954       121  OYPE      H7S            -8.7117416398       25.0933984446       -7.2275152091  MEMB      121             0.0000000000
     14955       121  OYPE      C28            -6.8191112070       25.2950055473       -6.0872741575  MEMB      121             0.0000000000
     14956       121  OYPE      H8R            -7.3471153277       25.6752644613       -5.1867541988  MEMB      121             0.0000000000
     14957       121  OYPE      H8S            -6.3459292526       26.0437207698       -6.7579787223  MEMB      121             0.0000000000
     14958       121  OYPE      C29            -5.6659595503       24.4398828916       -5.6032005185  MEMB      121             0.0000000000
     14959       121  OYPE      H9R            -4.7774150226       24.5806805801       -6.2361812372  MEMB      121             0.0000000000
     14960       121  OYPE      C210           -5.6927575930       23.5055583827       -4.6419880974  MEMB      121             0.0000000000
     14961       121  OYPE      H10R           -4.7599055935       23.1070807266       -4.2165431686  MEMB      121             0.0000000000
     14962       121  OYPE      C211           -6.8659321007       23.1084977343       -3.8539116860  MEMB      121             0.0000000000
     14963       121  OYPE      H11R           -6.9660292730       22.0116519461       -3.9996183322  MEMB      121             0.0000000000
     14964       121  OYPE      H11S           -7.7503805655       23.7279684093       -4.1153081913  MEMB      121             0.0000000000
     14965       121  OYPE      C212           -6.6286736413       23.5204006266       -2.3903649820  MEMB      121             0.0000000000
     14966       121  OYPE      H12R           -6.7989678243       24.5842161989       -2.1190398876  MEMB      121             0.0000000000
     14967       121  OYPE      H12S           -5.6046380250       23.1817801324       -2.1238902884  MEMB      121             0.0000000000
     14968       121  OYPE      C213           -7.5133400624       22.8218470433       -1.4023431014  MEMB      121             0.0000000000
     14969       121  OYPE      H13R           -7.5639976268       21.7392381688       -1.6467054952  MEMB      121             0.0000000000
     14970       121  OYPE      H13S           -8.4743616041       23.3567667855       -1.5592477545  MEMB      121             0.0000000000
     14971       121  OYPE      C214           -7.0832382747       22.9596376985        0.0796522371  MEMB      121             0.0000000000
     14972       121  OYPE      H14R           -6.0272464787       22.6239256806        0.1602729618  MEMB      121             0.0000000000
     14973       121  OYPE      H14S           -7.6847331325       22.3463291614        0.7841924452  MEMB      121             0.0000000000
     14974       121  OYPE      C215           -7.1035629739       24.4368098582        0.6541358925  MEMB      121             0.0000000000
     14975       121  OYPE      H15R           -6.2193389935       24.8726384195        0.1417668521  MEMB      121             0.0000000000
     14976       121  OYPE      H15S           -6.9591310135       24.3417641650        1.7516001586  MEMB      121             0.0000000000
     14977       121  OYPE      C216           -8.3547871196       25.3457504726        0.3426157351  MEMB      121             0.0000000000
     14978       121  OYPE      H16R           -8.1717091476       26.4204833943        0.5565168622  MEMB      121             0.0000000000
     14979       121  OYPE      H16S           -9.2137051469       24.9440816948        0.9216176193  MEMB      121             0.0000000000
     14980       121  OYPE      H16T           -8.5875746801       25.2796870590       -0.7417102514  MEMB      121             0.0000000000
     14981       121  OYPE      C33            -7.2444805285       18.1369958390      -13.1511107244  MEMB      121             0.0000000000
     14982       121  OYPE      H3X            -7.1933360575       19.1599316697      -13.5815843505  MEMB      121             0.0000000000
     14983       121  OYPE      H3Y            -6.1879996297       17.8043489123      -13.0644210152  MEMB      121             0.0000000000
     14984       121  OYPE      C34            -7.9770335547       18.1242671077      -11.7419598585  MEMB      121             0.0000000000
     14985       121  OYPE      H4X            -9.0483032750       18.3830648736      -11.8824096828  MEMB      121             0.0000000000
     14986       121  OYPE      H4Y            -7.8866266508       17.0568089101      -11.4475445343  MEMB      121             0.0000000000
     14987       121  OYPE      C35            -7.3769968497       18.9356906810      -10.6226341169  MEMB      121             0.0000000000
     14988       121  OYPE      H5X            -7.4247639577       19.9925156590      -10.9619869650  MEMB      121             0.0000000000
     14989       121  OYPE      H5Y            -6.3069791669       18.6849254001      -10.4598469103  MEMB      121             0.0000000000
     14990       121  OYPE      C36            -8.1015541417       18.6958622977       -9.2521830519  MEMB      121             0.0000000000
     14991       121  OYPE      H6X            -9.1973106863       18.8779226488       -9.2743685537  MEMB      121             0.0000000000
     14992       121  OYPE      H6Y            -8.1262649401       17.6615548632       -8.8473144899  MEMB      121             0.0000000000
     14993       121  OYPE      C37            -7.5861655434       19.6136024457       -8.1942964022  MEMB      121             0.0000000000
     14994       121  OYPE      H7X            -6.5018745298       19.4043707518       -8.0724111537  MEMB      121             0.0000000000
     14995       121  OYPE      H7Y            -7.8278576100       20.6639737817       -8.4637884806  MEMB      121             0.0000000000
     14996       121  OYPE      C38            -8.2541305024       19.4248977304       -6.7107763305  MEMB      121             0.0000000000
     14997       121  OYPE      H8X            -7.9472770601       18.3931733535       -6.4356280773  MEMB      121             0.0000000000
     14998       121  OYPE      H8Y            -7.8429602608       20.1463846763       -5.9727273445  MEMB      121             0.0000000000
     14999       121  OYPE      C39            -9.7582457667       19.5412395204       -6.7510121362  MEMB      121             0.0000000000
     15000       121  OYPE      H9X           -10.3321793148       19.0084317616       -7.5234864846  MEMB      121             0.0000000000
     15001       121  OYPE      C310          -10.4561370510       20.3001916404       -5.8555361365  MEMB      121             0.0000000000
     15002       121  OYPE      H10X          -11.5518667214       20.2227841944       -5.9137122043  MEMB      121             0.0000000000
     15003       121  OYPE      C311           -9.9808269858       21.1521284553       -4.7275796549  MEMB      121             0.0000000000
     15004       121  OYPE      H11X           -9.3070521971       21.9457653971       -5.1155085049  MEMB      121             0.0000000000
     15005       121  OYPE      H11Y          -10.8080164681       21.7475962624       -4.2854297788  MEMB      121             0.0000000000
     15006       121  OYPE      C312           -9.2927225061       20.3755158729       -3.5668883926  MEMB      121             0.0000000000
     15007       121  OYPE      H12X           -8.9628489967       21.1268998209       -2.8179376327  MEMB      121             0.0000000000
     15008       121  OYPE      H12Y           -8.3683697246       19.8833788497       -3.9379601241  MEMB      121             0.0000000000
     15009       121  OYPE      C313          -10.1283098701       19.2282978838       -2.9295991562  MEMB      121             0.0000000000
     15010       121  OYPE      H13X          -11.1397326390       19.6448139213       -2.7350238880  MEMB      121             0.0000000000
     15011       121  OYPE      H13Y          -10.1873713638       18.4029542286       -3.6709757320  MEMB      121             0.0000000000
     15012       121  OYPE      C314           -9.5163180967       18.7372922169       -1.6626509777  MEMB      121             0.0000000000
     15013       121  OYPE      H14X          -10.2813350151       18.0351701621       -1.2675620436  MEMB      121             0.0000000000
     15014       121  OYPE      H14Y           -9.5863621201       19.5415291237       -0.8993558841  MEMB      121             0.0000000000
     15015       121  OYPE      C315           -8.0751487637       18.1248647242       -1.8017690436  MEMB      121             0.0000000000
     15016       121  OYPE      H15X           -7.3819690855       18.9339285301       -2.1167911884  MEMB      121             0.0000000000
     15017       121  OYPE      H15Y           -8.1732429852       17.3800754804       -2.6202962274  MEMB      121             0.0000000000
     15018       121  OYPE      C316           -7.4292576400       17.4970708405       -0.5222383207  MEMB      121             0.0000000000
     15019       121  OYPE      H16X           -7.5714336347       16.4033856926       -0.6562553457  MEMB      121             0.0000000000
     15020       121  OYPE      H16Y           -7.7861555679       17.9784021354        0.4133161999  MEMB      121             0.0000000000
     15021       121  OYPE      C317           -5.8753796765       17.6291289863       -0.4959746254  MEMB      121             0.0000000000
     15022       121  OYPE      H17X           -5.4134312118       17.1333554831        0.3844410122  MEMB      121             0.0000000000
     15023       121  OYPE      H17Y           -5.6604164523       18.7188090226       -0.4693441526  MEMB      121             0.0000000000
     15024       121  OYPE      C318           -5.1609722932       17.0539438302       -1.6342518689  MEMB      121             0.0000000000
     15025       121  OYPE      H18X           -4.9176629990       15.9785774836       -1.4974703409  MEMB      121             0.0000000000
     15026       121  OYPE      H18Y           -5.6196244161       17.0682223280       -2.6460593632  MEMB      121             0.0000000000
     15027       121  OYPE      H18Z           -4.1746927808       17.4971215708       -1.8895307357  MEMB      121             0.0000000000
     15028       122  PVCL2     C3             16.7920182568       11.3337237702      -20.1168712978  MEMB      122             0.0000000000
     15029       122  PVCL2     HG31           17.4116907785       11.2753507019      -19.1965889480  MEMB      122             0.0000000000
     15030       122  PVCL2     HG32           17.2430020053       10.7077695509      -20.9163185502  MEMB      122             0.0000000000
     15031       122  PVCL2     P3             18.0107944799       13.2899793866      -21.2804109598  MEMB      122             0.0000000000
     15032       122  PVCL2     OP33           17.7038609543       14.3009271426      -22.3119266830  MEMB      122             0.0000000000
     15033       122  PVCL2     OP34           18.7396938297       12.0738861906      -21.8239575941  MEMB      122             0.0000000000
     15034       122  PVCL2     OP31           16.6803676265       12.8155193126      -20.4022128105  MEMB      122             0.0000000000
     15035       122  PVCL2     OP32           18.8749451884       14.1096778756      -20.2318401539  MEMB      122             0.0000000000
     15036       122  PVCL2     C31            18.2582595591       14.8832284525      -19.2085261313  MEMB      122             0.0000000000
     15037       122  PVCL2     H31J           17.5303700345       15.5740723251      -19.6852154065  MEMB      122             0.0000000000
     15038       122  PVCL2     H31K           17.7734166854       14.1963972253      -18.4822266925  MEMB      122             0.0000000000
     15039       122  PVCL2     C2             15.4140250809       10.7084062696      -19.7472451248  MEMB      122             0.0000000000
     15040       122  PVCL2     HG22           14.9476814259       11.3816116531      -18.9964862488  MEMB      122             0.0000000000
     15041       122  PVCL2     OG12           14.5326820650       10.6361710225      -20.9035635728  MEMB      122             0.0000000000
     15042       122  PVCL2     HO12           13.6405122097       10.4693059942      -20.5908512098  MEMB      122             0.0000000000
     15043       122  PVCL2     C1             15.5928267674        9.3325865321      -19.0355673634  MEMB      122             0.0000000000
     15044       122  PVCL2     HG11           15.9361087371        8.7162968177      -19.8938595459  MEMB      122             0.0000000000
     15045       122  PVCL2     HG12           14.6366831728        8.8449745561      -18.7486088139  MEMB      122             0.0000000000
     15046       122  PVCL2     P1             17.2104717655        8.0023447977      -17.5409120374  MEMB      122             0.0000000000
     15047       122  PVCL2     OP13           16.8108642828        7.7217487392      -16.1771056279  MEMB      122             0.0000000000
     15048       122  PVCL2     OP14           16.8997294593        6.9594094160      -18.5573935262  MEMB      122             0.0000000000
     15049       122  PVCL2     OP11           16.5709123820        9.4372628481      -18.0120444748  MEMB      122             0.0000000000
     15050       122  PVCL2     OP12           18.7780690244        8.2243324660      -17.5575942793  MEMB      122             0.0000000000
     15051       122  PVCL2     C11            19.6281638289        8.8345234390      -18.5397135664  MEMB      122             0.0000000000
     15052       122  PVCL2     H11J           19.1381283607        9.6883164103      -19.0547125460  MEMB      122             0.0000000000
     15053       122  PVCL2     H11K           19.8712427611        8.0290457576      -19.2652749071  MEMB      122             0.0000000000
     15054       122  PVCL2     C12            21.0183600895        9.1950122509      -17.9911708891  MEMB      122             0.0000000000
     15055       122  PVCL2     H12J           21.8735147592        8.9811801180      -18.6674159509  MEMB      122             0.0000000000
     15056       122  PVCL2     O12            21.2246032416        8.6523560480      -16.6947963743  MEMB      122             0.0000000000
     15057       122  PVCL2     CA1            21.5341514460        7.3864717119      -16.5840813044  MEMB      122             0.0000000000
     15058       122  PVCL2     OA1            21.2324385073        6.5436890179      -17.3911215289  MEMB      122             0.0000000000
     15059       122  PVCL2     CA2            22.2968392384        7.0791624486      -15.3134248331  MEMB      122             0.0000000000
     15060       122  PVCL2     H2A            22.6051399369        6.0183995275      -15.1948742769  MEMB      122             0.0000000000
     15061       122  PVCL2     H2B            21.6810166581        7.4935856481      -14.4867830368  MEMB      122             0.0000000000
     15062       122  PVCL2     C13            21.0851492108       10.7032473279      -17.9629266703  MEMB      122             0.0000000000
     15063       122  PVCL2     H13J           20.9112193637       11.1467437971      -18.9666100939  MEMB      122             0.0000000000
     15064       122  PVCL2     H13K           22.1591807530       10.9326555232      -17.7951497606  MEMB      122             0.0000000000
     15065       122  PVCL2     O13            20.1614249566       11.1751063226      -16.9557256369  MEMB      122             0.0000000000
     15066       122  PVCL2     CB1            20.6484842214       11.3984493738      -15.7428601739  MEMB      122             0.0000000000
     15067       122  PVCL2     OB1            21.7797926088       11.1864000410      -15.3994211329  MEMB      122             0.0000000000
     15068       122  PVCL2     CB2            19.5449635698       11.7504841487      -14.7385715357  MEMB      122             0.0000000000
     15069       122  PVCL2     H2D            18.8645976687       12.4672336420      -15.2462071265  MEMB      122             0.0000000000
     15070       122  PVCL2     H2E            19.8652701196       12.1915517371      -13.7704891483  MEMB      122             0.0000000000
     15071       122  PVCL2     C32            19.2390897129       15.7745450154      -18.3761505012  MEMB      122             0.0000000000
     15072       122  PVCL2     H32J           19.6926194147       16.3860499222      -19.1852818071  MEMB      122             0.0000000000
     15073       122  PVCL2     O32            20.1784026118       14.8796134520      -17.8130825222  MEMB      122             0.0000000000
     15074       122  PVCL2     CC1            21.3742572637       15.3894022668      -17.5075282343  MEMB      122             0.0000000000
     15075       122  PVCL2     OC1            21.8234794745       16.4621800114      -17.9695678885  MEMB      122             0.0000000000
     15076       122  PVCL2     CC2            22.1801433146       14.4083422627      -16.6272393236  MEMB      122             0.0000000000
     15077       122  PVCL2     H2R            22.2748791756       13.4159307727      -17.1176122697  MEMB      122             0.0000000000
     15078       122  PVCL2     H2S            21.5804728033       14.1795530186      -15.7203920167  MEMB      122             0.0000000000
     15079       122  PVCL2     C33            18.5774738497       16.7088664643      -17.2788689298  MEMB      122             0.0000000000
     15080       122  PVCL2     H33J           19.4377936787       17.1120860233      -16.7030349832  MEMB      122             0.0000000000
     15081       122  PVCL2     H33K           18.0066688867       17.4790468743      -17.8404069201  MEMB      122             0.0000000000
     15082       122  PVCL2     O33            17.7051967142       15.9932470443      -16.3672763648  MEMB      122             0.0000000000
     15083       122  PVCL2     CD1            17.5905218884       16.5290338694      -15.1124034513  MEMB      122             0.0000000000
     15084       122  PVCL2     OD1            18.0377657369       17.5753388649      -14.7717500247  MEMB      122             0.0000000000
     15085       122  PVCL2     CD2            16.7774232824       15.5326326028      -14.2297985124  MEMB      122             0.0000000000
     15086       122  PVCL2     H2X            16.0568811304       14.8242140402      -14.6916243857  MEMB      122             0.0000000000
     15087       122  PVCL2     H2Y            16.1517598278       16.1443562592      -13.5452107050  MEMB      122             0.0000000000
     15088       122  PVCL2     CA3            23.6843915765        7.7627911612      -15.2989361010  MEMB      122             0.0000000000
     15089       122  PVCL2     H3A            23.4731942968        8.7387654739      -15.7859585029  MEMB      122             0.0000000000
     15090       122  PVCL2     H3B            24.4499636027        7.2007395408      -15.8754071722  MEMB      122             0.0000000000
     15091       122  PVCL2     CA4            24.1973492437        8.0416340917      -13.8699663351  MEMB      122             0.0000000000
     15092       122  PVCL2     H4A            23.5102341762        8.7306120759      -13.3337730525  MEMB      122             0.0000000000
     15093       122  PVCL2     H4B            25.1685675655        8.5710601991      -13.9737162060  MEMB      122             0.0000000000
     15094       122  PVCL2     CA5            24.4254078182        6.6854824909      -13.1376148824  MEMB      122             0.0000000000
     15095       122  PVCL2     H5A            24.8110644408        6.0005717781      -13.9227816661  MEMB      122             0.0000000000
     15096       122  PVCL2     H5B            23.4232696737        6.2758738807      -12.8880929152  MEMB      122             0.0000000000
     15097       122  PVCL2     CA6            25.1896896180        6.8920027895      -11.8869299794  MEMB      122             0.0000000000
     15098       122  PVCL2     H6A            25.9910616553        7.6310723970      -12.1011732792  MEMB      122             0.0000000000
     15099       122  PVCL2     H6B            25.6773421484        5.9820080477      -11.4765339965  MEMB      122             0.0000000000
     15100       122  PVCL2     CA7            24.3759176708        7.4948305547      -10.6518897335  MEMB      122             0.0000000000
     15101       122  PVCL2     H7A            23.8922650330        8.3819871292      -11.1137921692  MEMB      122             0.0000000000
     15102       122  PVCL2     H7B            24.9480205077        7.9113977077       -9.7954478885  MEMB      122             0.0000000000
     15103       122  PVCL2     CA8            23.2935498186        6.6678934707       -9.9680897639  MEMB      122             0.0000000000
     15104       122  PVCL2     H8A            22.6915246798        6.0791882013      -10.6928748249  MEMB      122             0.0000000000
     15105       122  PVCL2     H8B            22.5934398618        7.2864238934       -9.3667687775  MEMB      122             0.0000000000
     15106       122  PVCL2     CA9            23.9073922543        5.6476919675       -8.9211079438  MEMB      122             0.0000000000
     15107       122  PVCL2     H9A            24.6106076321        6.2288482021       -8.2870205678  MEMB      122             0.0000000000
     15108       122  PVCL2     H9B            24.5168572718        4.9320871045       -9.5133771300  MEMB      122             0.0000000000
     15109       122  PVCL2     CA10           22.8789302649        4.8306945551       -8.1646138287  MEMB      122             0.0000000000
     15110       122  PVCL2     H10A           22.1368945559        4.3747590678       -8.8544154959  MEMB      122             0.0000000000
     15111       122  PVCL2     H10B           22.2504632516        5.4698224120       -7.5082099343  MEMB      122             0.0000000000
     15112       122  PVCL2     CA11           23.4951004605        3.7136944169       -7.2801943824  MEMB      122             0.0000000000
     15113       122  PVCL2     H11A           24.1937868296        3.1644830879       -7.9284263465  MEMB      122             0.0000000000
     15114       122  PVCL2     CA12           23.2511727361        3.4413683108       -5.9280792862  MEMB      122             0.0000000000
     15115       122  PVCL2     H12A           23.6280104949        2.5191496490       -5.4617041904  MEMB      122             0.0000000000
     15116       122  PVCL2     CA13           22.3559397293        4.1342585849       -4.8695703246  MEMB      122             0.0000000000
     15117       122  PVCL2     H13A           22.4977416377        3.5492426622       -3.9357769124  MEMB      122             0.0000000000
     15118       122  PVCL2     H13B           21.2876912022        3.9747073821       -5.1297802416  MEMB      122             0.0000000000
     15119       122  PVCL2     CA14           22.6599382997        5.6707425243       -4.5898889777  MEMB      122             0.0000000000
     15120       122  PVCL2     H14A           21.8696410004        6.2333447460       -5.1313974381  MEMB      122             0.0000000000
     15121       122  PVCL2     H14B           23.6973080800        5.8747635886       -4.9312985314  MEMB      122             0.0000000000
     15122       122  PVCL2     CA15           22.7114214401        6.0782259095       -3.0908090599  MEMB      122             0.0000000000
     15123       122  PVCL2     H15A           23.2563728030        7.0333721704       -2.9325551244  MEMB      122             0.0000000000
     15124       122  PVCL2     H15B           23.3841234094        5.2969589243       -2.6767876534  MEMB      122             0.0000000000
     15125       122  PVCL2     CA16           21.4115544369        6.1817994181       -2.3637879510  MEMB      122             0.0000000000
     15126       122  PVCL2     H16A           20.7619285061        5.3177742487       -2.6202418911  MEMB      122             0.0000000000
     15127       122  PVCL2     H16B           20.8822348242        7.1069538931       -2.6772056751  MEMB      122             0.0000000000
     15128       122  PVCL2     CA17           21.4255817694        6.2063321007       -0.8306046662  MEMB      122             0.0000000000
     15129       122  PVCL2     H17A           21.9360830590        7.1630180009       -0.5888157554  MEMB      122             0.0000000000
     15130       122  PVCL2     H17B           22.0159031713        5.3445168038       -0.4522997083  MEMB      122             0.0000000000
     15131       122  PVCL2     CA18           20.0703687307        6.1236714770       -0.2340194618  MEMB      122             0.0000000000
     15132       122  PVCL2     H18A           19.3819673812        6.9543696780       -0.4992821220  MEMB      122             0.0000000000
     15133       122  PVCL2     H18B           20.2383391276        5.8807729643        0.8370128061  MEMB      122             0.0000000000
     15134       122  PVCL2     H18C           19.5982884266        5.1998505001       -0.6315318119  MEMB      122             0.0000000000
     15135       122  PVCL2     CB3            18.8335874887       10.4063078900      -14.2310745878  MEMB      122             0.0000000000
     15136       122  PVCL2     H3D            18.6918683071        9.7783076237      -15.1365317255  MEMB      122             0.0000000000
     15137       122  PVCL2     H3E            17.8476927394       10.7119858850      -13.8201078661  MEMB      122             0.0000000000
     15138       122  PVCL2     CB4            19.5074887406        9.4235314205      -13.2516758653  MEMB      122             0.0000000000
     15139       122  PVCL2     H4D            19.3787030585        9.8971818971      -12.2549862471  MEMB      122             0.0000000000
     15140       122  PVCL2     H4E            20.6056397237        9.4084310335      -13.4194768529  MEMB      122             0.0000000000
     15141       122  PVCL2     CB5            18.9923248730        7.9373087604      -13.3850252173  MEMB      122             0.0000000000
     15142       122  PVCL2     H5D            19.3854912066        7.3983214177      -14.2734135189  MEMB      122             0.0000000000
     15143       122  PVCL2     H5E            17.8896202945        8.0215326997      -13.4911853936  MEMB      122             0.0000000000
     15144       122  PVCL2     CB6            19.3065082815        7.1242487482      -12.1035156551  MEMB      122             0.0000000000
     15145       122  PVCL2     H6D            20.4124667729        7.0270198212      -12.0619986343  MEMB      122             0.0000000000
     15146       122  PVCL2     H6E            18.8406605277        6.1395076088      -12.3216706778  MEMB      122             0.0000000000
     15147       122  PVCL2     CB7            18.7293016957        7.6406359731      -10.7520175274  MEMB      122             0.0000000000
     15148       122  PVCL2     H7D            17.7256311117        8.1154419903      -10.7910731007  MEMB      122             0.0000000000
     15149       122  PVCL2     H7E            19.4519194766        8.3782616528      -10.3420736951  MEMB      122             0.0000000000
     15150       122  PVCL2     CB8            18.4865117340        6.4061964167       -9.8104290449  MEMB      122             0.0000000000
     15151       122  PVCL2     H8D            19.4481674646        5.9600258532       -9.4780569627  MEMB      122             0.0000000000
     15152       122  PVCL2     H8E            17.8763235348        5.6228345698      -10.3087617788  MEMB      122             0.0000000000
     15153       122  PVCL2     CB9            17.6570976930        6.7780823727       -8.5555455440  MEMB      122             0.0000000000
     15154       122  PVCL2     H9D            17.3898930392        5.8802241471       -7.9582408603  MEMB      122             0.0000000000
     15155       122  PVCL2     H9E            16.6291448705        7.1090776972       -8.8164589266  MEMB      122             0.0000000000
     15156       122  PVCL2     CB10           18.4293007929        7.6809766752       -7.4838085639  MEMB      122             0.0000000000
     15157       122  PVCL2     H10D           18.8678813954        8.5824955889       -7.9625901101  MEMB      122             0.0000000000
     15158       122  PVCL2     H10E           19.2353896533        6.9616662605       -7.2247063787  MEMB      122             0.0000000000
     15159       122  PVCL2     CB11           17.6103921404        7.9098459901       -6.1912296220  MEMB      122             0.0000000000
     15160       122  PVCL2     H11D           17.5854191898        6.9845692104       -5.5767707394  MEMB      122             0.0000000000
     15161       122  PVCL2     H11E           16.5709891534        8.2064045221       -6.4481636457  MEMB      122             0.0000000000
     15162       122  PVCL2     CB12           18.2859657301        9.0251842881       -5.4217860895  MEMB      122             0.0000000000
     15163       122  PVCL2     H12D           18.0801745234        9.9367984924       -6.0225616809  MEMB      122             0.0000000000
     15164       122  PVCL2     H12E           19.3774463194        8.8212896205       -5.3841209462  MEMB      122             0.0000000000
     15165       122  PVCL2     CB13           17.8522912654        9.1270570280       -3.9720126925  MEMB      122             0.0000000000
     15166       122  PVCL2     H13D           18.3012189537       10.0577566323       -3.5638657175  MEMB      122             0.0000000000
     15167       122  PVCL2     H13E           18.3853958695        8.2799678889       -3.4897675697  MEMB      122             0.0000000000
     15168       122  PVCL2     CB14           16.3333724810        9.0026010794       -3.7140446943  MEMB      122             0.0000000000
     15169       122  PVCL2     H14D           16.0542181526        7.9293757490       -3.7817254615  MEMB      122             0.0000000000
     15170       122  PVCL2     H14E           15.7869717519        9.5382843477       -4.5195322031  MEMB      122             0.0000000000
     15171       122  PVCL2     CB15           15.9062537082        9.5178442805       -2.4220971974  MEMB      122             0.0000000000
     15172       122  PVCL2     H15D           14.8028881896        9.3946230207       -2.4636059035  MEMB      122             0.0000000000
     15173       122  PVCL2     H15E           16.0787738928       10.6053049916       -2.2738172727  MEMB      122             0.0000000000
     15174       122  PVCL2     CB16           16.5599505769        8.8133182901       -1.1841770335  MEMB      122             0.0000000000
     15175       122  PVCL2     H16D           16.7913621392        7.7581769192       -1.4438824459  MEMB      122             0.0000000000
     15176       122  PVCL2     H16E           15.8613672087        8.9047794165       -0.3251444529  MEMB      122             0.0000000000
     15177       122  PVCL2     H16F           17.5176474868        9.3035147824       -0.9069690292  MEMB      122             0.0000000000
     15178       122  PVCL2     CC3            23.6017940246       14.9098119819      -16.3071944189  MEMB      122             0.0000000000
     15179       122  PVCL2     H3R            23.8371972649       15.8007978677      -16.9277188657  MEMB      122             0.0000000000
     15180       122  PVCL2     H3S            24.3058394071       14.1227208395      -16.6523446291  MEMB      122             0.0000000000
     15181       122  PVCL2     CC4            23.9246561370       15.3161977835      -14.8504025299  MEMB      122             0.0000000000
     15182       122  PVCL2     H4R            23.0424028748       15.2879170513      -14.1757543320  MEMB      122             0.0000000000
     15183       122  PVCL2     H4S            24.1536944235       16.4033256165      -14.8463507117  MEMB      122             0.0000000000
     15184       122  PVCL2     CC5            25.0643634077       14.5397699295      -14.0432804952  MEMB      122             0.0000000000
     15185       122  PVCL2     H5R            25.4564920477       15.0647536778      -13.1460915901  MEMB      122             0.0000000000
     15186       122  PVCL2     H5S            25.9692022081       14.4977212995      -14.6865685006  MEMB      122             0.0000000000
     15187       122  PVCL2     CC6            24.6178910453       13.2105798613      -13.4522753394  MEMB      122             0.0000000000
     15188       122  PVCL2     H6R            25.4800083768       12.6977950962      -12.9746489289  MEMB      122             0.0000000000
     15189       122  PVCL2     H6S            24.2177712073       12.6109155474      -14.2976318487  MEMB      122             0.0000000000
     15190       122  PVCL2     CC7            23.5317580079       13.0778366115      -12.3408128935  MEMB      122             0.0000000000
     15191       122  PVCL2     H7R            22.5578973137       13.2573759230      -12.8444806244  MEMB      122             0.0000000000
     15192       122  PVCL2     H7S            23.7174666755       13.7787450181      -11.4990516068  MEMB      122             0.0000000000
     15193       122  PVCL2     CC8            23.4997092761       11.6314202888      -11.8249412566  MEMB      122             0.0000000000
     15194       122  PVCL2     H8R            24.4381595638       11.3508143993      -11.3006388581  MEMB      122             0.0000000000
     15195       122  PVCL2     H8S            23.1866287106       10.9862834458      -12.6735286014  MEMB      122             0.0000000000
     15196       122  PVCL2     CC9            22.3802855403       11.3981571427      -10.8286687133  MEMB      122             0.0000000000
     15197       122  PVCL2     H9R            22.3623434625       10.3534828366      -10.4509723038  MEMB      122             0.0000000000
     15198       122  PVCL2     H9S            21.4143307145       11.8075765750      -11.1942202293  MEMB      122             0.0000000000
     15199       122  PVCL2     CC10           22.4965553194       12.1694936932       -9.4863293806  MEMB      122             0.0000000000
     15200       122  PVCL2     H10R           22.6468243577       13.2508660260       -9.6921796997  MEMB      122             0.0000000000
     15201       122  PVCL2     H10S           23.4212182586       11.8155362441       -8.9823130796  MEMB      122             0.0000000000
     15202       122  PVCL2     CC11           21.3147408365       11.8640715564       -8.5867753447  MEMB      122             0.0000000000
     15203       122  PVCL2     H11R           20.4120078340       12.4438342363       -8.8295671583  MEMB      122             0.0000000000
     15204       122  PVCL2     CC12           21.2001391522       10.9258964484       -7.6593503881  MEMB      122             0.0000000000
     15205       122  PVCL2     H12R           20.2166981898       10.8238962626       -7.1772301094  MEMB      122             0.0000000000
     15206       122  PVCL2     CC13           22.3314780845        9.9163755567       -7.3851046520  MEMB      122             0.0000000000
     15207       122  PVCL2     H13R           22.9237011015        9.9327120605       -8.3249588191  MEMB      122             0.0000000000
     15208       122  PVCL2     H13S           21.9910083414        8.8724913983       -7.2156723425  MEMB      122             0.0000000000
     15209       122  PVCL2     CC14           23.2829766797       10.2353666573       -6.2192343211  MEMB      122             0.0000000000
     15210       122  PVCL2     H14R           22.8174184429       10.3598829510       -5.2181989612  MEMB      122             0.0000000000
     15211       122  PVCL2     H14S           23.9444646858       11.0939737460       -6.4632601317  MEMB      122             0.0000000000
     15212       122  PVCL2     CC15           24.2722477671        9.0772894133       -6.0640277993  MEMB      122             0.0000000000
     15213       122  PVCL2     H15R           24.6616028895        8.7346334126       -7.0465303191  MEMB      122             0.0000000000
     15214       122  PVCL2     H15S           23.7764571949        8.1666076081       -5.6650647733  MEMB      122             0.0000000000
     15215       122  PVCL2     CC16           25.2563919352        9.4798137745       -5.0116056381  MEMB      122             0.0000000000
     15216       122  PVCL2     H16R           25.4325703444        8.5835643463       -4.3791357325  MEMB      122             0.0000000000
     15217       122  PVCL2     H16S           24.8478391684       10.1643789994       -4.2377989867  MEMB      122             0.0000000000
     15218       122  PVCL2     CC17           26.6189556002       10.0975557718       -5.5201319456  MEMB      122             0.0000000000
     15219       122  PVCL2     H17R           27.2450033668       10.5788969689       -4.7386612441  MEMB      122             0.0000000000
     15220       122  PVCL2     H17S           26.4588829192       10.8368225932       -6.3338785160  MEMB      122             0.0000000000
     15221       122  PVCL2     CC18           27.5428863775        8.9765141892       -6.0737844184  MEMB      122             0.0000000000
     15222       122  PVCL2     H18R           28.3389144212        9.2280972792       -6.8068373653  MEMB      122             0.0000000000
     15223       122  PVCL2     H18S           26.9607915319        8.2981240872       -6.7335365144  MEMB      122             0.0000000000
     15224       122  PVCL2     H18T           27.9484835359        8.4323954039       -5.1941549701  MEMB      122             0.0000000000
     15225       122  PVCL2     CD3            17.9321441880       14.8009718229      -13.4451414921  MEMB      122             0.0000000000
     15226       122  PVCL2     H3X            18.6547513683       15.5390272082      -13.0359544998  MEMB      122             0.0000000000
     15227       122  PVCL2     H3Y            18.6174819741       14.1970430519      -14.0775205953  MEMB      122             0.0000000000
     15228       122  PVCL2     CD4            17.4208966150       13.8122611922      -12.2583446303  MEMB      122             0.0000000000
     15229       122  PVCL2     H4X            17.8034746267       14.2534928459      -11.3132149633  MEMB      122             0.0000000000
     15230       122  PVCL2     H4Y            17.7691936774       12.7731518744      -12.4407235027  MEMB      122             0.0000000000
     15231       122  PVCL2     CD5            15.8555481522       13.7750914974      -12.0477313704  MEMB      122             0.0000000000
     15232       122  PVCL2     H5X            15.3258306945       13.7238250467      -13.0229710227  MEMB      122             0.0000000000
     15233       122  PVCL2     H5Y            15.7613300693       14.7359510424      -11.4980108835  MEMB      122             0.0000000000
     15234       122  PVCL2     CD6            15.3238355334       12.7217761871      -11.1206327072  MEMB      122             0.0000000000
     15235       122  PVCL2     H6X            15.5862636299       11.7621326087      -11.6151392751  MEMB      122             0.0000000000
     15236       122  PVCL2     H6Y            14.2318439436       12.9242185761      -11.1505017612  MEMB      122             0.0000000000
     15237       122  PVCL2     CD7            15.7343063604       12.7087439928       -9.6955522524  MEMB      122             0.0000000000
     15238       122  PVCL2     H7X            16.8322299487       12.8037348162       -9.5546205390  MEMB      122             0.0000000000
     15239       122  PVCL2     H7Y            15.4995378737       11.7235887888       -9.2387436114  MEMB      122             0.0000000000
     15240       122  PVCL2     CD8            15.1188536799       13.8243063368       -8.7374196736  MEMB      122             0.0000000000
     15241       122  PVCL2     H8X            14.1966234835       14.1527718826       -9.2627041792  MEMB      122             0.0000000000
     15242       122  PVCL2     H8Y            15.7930946166       14.7014337638       -8.8392408625  MEMB      122             0.0000000000
     15243       122  PVCL2     CD9            14.9507573318       13.3828585411       -7.3167355795  MEMB      122             0.0000000000
     15244       122  PVCL2     H9X            14.2361602240       12.5496920165       -7.1449639127  MEMB      122             0.0000000000
     15245       122  PVCL2     H9Y            14.6423065200       14.2488728567       -6.6928785165  MEMB      122             0.0000000000
     15246       122  PVCL2     CD10           16.2562412616       12.8258754088       -6.6691696051  MEMB      122             0.0000000000
     15247       122  PVCL2     H10X           16.4864412542       11.9066163853       -7.2490760111  MEMB      122             0.0000000000
     15248       122  PVCL2     H10Y           16.0875241477       12.5424575635       -5.6082594129  MEMB      122             0.0000000000
     15249       122  PVCL2     CD11           17.5016357677       13.8037291326       -6.5909360043  MEMB      122             0.0000000000
     15250       122  PVCL2     H11X           17.0209175739       14.7852881034       -6.3915040248  MEMB      122             0.0000000000
     15251       122  PVCL2     H11Y           17.8507795502       13.7668316796       -7.6450038858  MEMB      122             0.0000000000
     15252       122  PVCL2     CD12           18.5116866843       13.3494707988       -5.5826186993  MEMB      122             0.0000000000
     15253       122  PVCL2     H12X           18.8612814515       12.3348375343       -5.8700624743  MEMB      122             0.0000000000
     15254       122  PVCL2     H12Y           18.1710292712       13.2143998991       -4.5337957374  MEMB      122             0.0000000000
     15255       122  PVCL2     CD13           19.7777403000       14.3143692839       -5.4058138636  MEMB      122             0.0000000000
     15256       122  PVCL2     H13X           19.2757075495       15.3022653690       -5.4854747277  MEMB      122             0.0000000000
     15257       122  PVCL2     H13Y           20.4974551296       14.0243567345       -6.2009391196  MEMB      122             0.0000000000
     15258       122  PVCL2     CD14           20.4546731026       14.2952530795       -3.9929644045  MEMB      122             0.0000000000
     15259       122  PVCL2     H14X           19.6579423171       14.4849193649       -3.2422529173  MEMB      122             0.0000000000
     15260       122  PVCL2     H14Y           21.0485375204       15.2301795540       -3.9060250998  MEMB      122             0.0000000000
     15261       122  PVCL2     CD15           21.2502160078       13.0271829377       -3.6861579381  MEMB      122             0.0000000000
     15262       122  PVCL2     H15X           22.1897192226       13.1244991971       -4.2711233164  MEMB      122             0.0000000000
     15263       122  PVCL2     H15Y           20.8020240141       12.0380824744       -3.9209455472  MEMB      122             0.0000000000
     15264       122  PVCL2     CD16           21.3678420930       12.7954662768       -2.1958002217  MEMB      122             0.0000000000
     15265       122  PVCL2     H16X           20.4634909843       12.9512939166       -1.5695510752  MEMB      122             0.0000000000
     15266       122  PVCL2     H16Y           22.1344640723       13.4675479143       -1.7543066950  MEMB      122             0.0000000000
     15267       122  PVCL2     H16Z           21.6444882924       11.7974672382       -1.7935762333  MEMB      122             0.0000000000
     15268       123  PMPE      N             -19.7326732123        6.3755790015      -21.0753162638  MEMB      123             0.0000000000
     15269       123  PMPE      HN1           -20.3355422427        5.6496373553      -20.6381006001  MEMB      123             0.0000000000
     15270       123  PMPE      HN2           -20.2730071182        6.9565654984      -21.7476954533  MEMB      123             0.0000000000
     15271       123  PMPE      HN3           -18.9655209254        5.8525108888      -21.5438001400  MEMB      123             0.0000000000
     15272       123  PMPE      C12           -19.2669830447        7.2521782026      -19.8889856802  MEMB      123             0.0000000000
     15273       123  PMPE      H12A          -18.2451395613        7.5771921455      -20.1797136031  MEMB      123             0.0000000000
     15274       123  PMPE      H12B          -19.1739036341        6.5687721308      -19.0180015304  MEMB      123             0.0000000000
     15275       123  PMPE      C11           -20.4310432157        8.2011512244      -19.5166265028  MEMB      123             0.0000000000
     15276       123  PMPE      H11A          -21.3498868560        7.5805566325      -19.4465571957  MEMB      123             0.0000000000
     15277       123  PMPE      H11B          -20.6381073914        8.8927560604      -20.3610957183  MEMB      123             0.0000000000
     15278       123  PMPE      P             -19.6407510442       10.4091924219      -18.3640200308  MEMB      123             0.0000000000
     15279       123  PMPE      O13           -20.6123504704       11.4171419686      -18.8897022862  MEMB      123             0.0000000000
     15280       123  PMPE      O14           -18.4072532876       10.2826964232      -19.0763519008  MEMB      123             0.0000000000
     15281       123  PMPE      O11           -19.3442614122       10.5569108765      -16.8134236914  MEMB      123             0.0000000000
     15282       123  PMPE      O12           -20.2177387151        8.9458284385      -18.3755736162  MEMB      123             0.0000000000
     15283       123  PMPE      C1            -20.4578013353       10.2505021542      -15.9933193156  MEMB      123             0.0000000000
     15284       123  PMPE      HA            -20.8655053470        9.2289999056      -16.1502639124  MEMB      123             0.0000000000
     15285       123  PMPE      HB            -21.3585671619       10.8578559518      -16.2258347677  MEMB      123             0.0000000000
     15286       123  PMPE      C2            -20.0572571686       10.3014102286      -14.5347629334  MEMB      123             0.0000000000
     15287       123  PMPE      HS            -20.9057308000        9.8799493603      -13.9544315747  MEMB      123             0.0000000000
     15288       123  PMPE      O21           -19.7853648152       11.6464397284      -14.1600128193  MEMB      123             0.0000000000
     15289       123  PMPE      C21           -20.7836070254       12.5291971569      -14.1842755470  MEMB      123             0.0000000000
     15290       123  PMPE      O22           -21.9401265017       12.3233869772      -14.4182780648  MEMB      123             0.0000000000
     15291       123  PMPE      C22           -20.1583583748       13.8945648628      -13.7822942396  MEMB      123             0.0000000000
     15292       123  PMPE      H2R           -20.9590155173       14.6272179483      -14.0199670159  MEMB      123             0.0000000000
     15293       123  PMPE      H2S           -19.2500904994       14.0902697801      -14.3914493351  MEMB      123             0.0000000000
     15294       123  PMPE      C3            -18.7648217973        9.4924932382      -14.2872408412  MEMB      123             0.0000000000
     15295       123  PMPE      HX            -17.8340978478       10.0216756456      -14.5839561834  MEMB      123             0.0000000000
     15296       123  PMPE      HY            -18.9191377011        8.5808897275      -14.9032657911  MEMB      123             0.0000000000
     15297       123  PMPE      O31           -18.5049015854        9.1297533279      -12.8665353408  MEMB      123             0.0000000000
     15298       123  PMPE      C31           -17.9609410926       10.0566648073      -12.0412834120  MEMB      123             0.0000000000
     15299       123  PMPE      O32           -17.7543790548       11.2068571754      -12.2606622096  MEMB      123             0.0000000000
     15300       123  PMPE      C32           -17.7232848463        9.2862547839      -10.7305665937  MEMB      123             0.0000000000
     15301       123  PMPE      H2X           -17.2589491520        9.9390286686       -9.9607612773  MEMB      123             0.0000000000
     15302       123  PMPE      H2Y           -16.9176264773        8.5623984518      -10.9780896803  MEMB      123             0.0000000000
     15303       123  PMPE      C23           -19.7229708321       14.1184143448      -12.3480644330  MEMB      123             0.0000000000
     15304       123  PMPE      H3R           -19.0636806246       15.0056087128      -12.2360642977  MEMB      123             0.0000000000
     15305       123  PMPE      H3S           -19.0387342830       13.2950871655      -12.0509563441  MEMB      123             0.0000000000
     15306       123  PMPE      C24           -20.8673381209       14.2373924782      -11.2659649089  MEMB      123             0.0000000000
     15307       123  PMPE      H4R           -21.3089372918       13.2194305282      -11.3213242395  MEMB      123             0.0000000000
     15308       123  PMPE      H4S           -21.5741598634       14.9841453019      -11.6867778340  MEMB      123             0.0000000000
     15309       123  PMPE      C25           -20.4392269975       14.5165400140       -9.8075383797  MEMB      123             0.0000000000
     15310       123  PMPE      H5R           -21.3782896675       14.6421490345       -9.2272756799  MEMB      123             0.0000000000
     15311       123  PMPE      H5S           -19.8316135046       15.4445198129       -9.7444416401  MEMB      123             0.0000000000
     15312       123  PMPE      C26           -19.5044623173       13.3965889793       -9.2041410510  MEMB      123             0.0000000000
     15313       123  PMPE      H6R           -18.4940753769       13.4731029433       -9.6597558521  MEMB      123             0.0000000000
     15314       123  PMPE      H6S           -19.9501364427       12.4403434878       -9.5524089087  MEMB      123             0.0000000000
     15315       123  PMPE      C27           -19.4041951301       13.4848704993       -7.7176342746  MEMB      123             0.0000000000
     15316       123  PMPE      H7R           -20.4317124796       13.5379711937       -7.2984571671  MEMB      123             0.0000000000
     15317       123  PMPE      H7S           -19.1235120550       14.4860565702       -7.3262721906  MEMB      123             0.0000000000
     15318       123  PMPE      C28           -18.6623597697       12.2878125756       -7.1860746096  MEMB      123             0.0000000000
     15319       123  PMPE      H8R           -17.5866673764       12.5552357361       -7.2615191449  MEMB      123             0.0000000000
     15320       123  PMPE      H8S           -18.7447985043       11.3248895866       -7.7340745273  MEMB      123             0.0000000000
     15321       123  PMPE      C29           -19.1109531065       12.1613044740       -5.7133647243  MEMB      123             0.0000000000
     15322       123  PMPE      H9R           -20.1544119664       11.8576973563       -5.4824157733  MEMB      123             0.0000000000
     15323       123  PMPE      C217          -18.3850438099       12.8994210985       -4.6243986256  MEMB      123             0.0000000000
     15324       123  PMPE      H17R          -18.9888215742       13.1779265146       -3.7695446498  MEMB      123             0.0000000000
     15325       123  PMPE      H17S          -17.5609185958       13.4914809579       -5.0027788770  MEMB      123             0.0000000000
     15326       123  PMPE      C210          -18.2887956773       11.3521344475       -4.7725455943  MEMB      123             0.0000000000
     15327       123  PMPE      H10R          -18.8801126010       10.8881412375       -3.9543915620  MEMB      123             0.0000000000
     15328       123  PMPE      C211          -17.1188695037       10.6122089493       -5.3138364576  MEMB      123             0.0000000000
     15329       123  PMPE      H11R          -16.2664905142       11.3158494731       -5.4263574878  MEMB      123             0.0000000000
     15330       123  PMPE      H11S          -17.3005559167       10.2712200337       -6.3554878025  MEMB      123             0.0000000000
     15331       123  PMPE      C212          -16.7533637816        9.3896414558       -4.4723431907  MEMB      123             0.0000000000
     15332       123  PMPE      H12R          -15.9488987818        8.8634624589       -5.0293824748  MEMB      123             0.0000000000
     15333       123  PMPE      H12S          -17.6719776174        8.7861855347       -4.6345475053  MEMB      123             0.0000000000
     15334       123  PMPE      C213          -16.4250982180        9.6816389788       -3.0320180337  MEMB      123             0.0000000000
     15335       123  PMPE      H13R          -17.2905275653       10.1936512988       -2.5595811652  MEMB      123             0.0000000000
     15336       123  PMPE      H13S          -15.7052861356       10.5116474972       -3.1971767276  MEMB      123             0.0000000000
     15337       123  PMPE      C214          -15.9130107441        8.5820832612       -2.1146686208  MEMB      123             0.0000000000
     15338       123  PMPE      H14R          -15.5155669977        9.1718385282       -1.2611171299  MEMB      123             0.0000000000
     15339       123  PMPE      H14S          -15.0572647702        8.1410714700       -2.6692197336  MEMB      123             0.0000000000
     15340       123  PMPE      C215          -17.0212436068        7.5999108523       -1.6080143907  MEMB      123             0.0000000000
     15341       123  PMPE      H15R          -17.4006968933        7.0716199401       -2.5087057644  MEMB      123             0.0000000000
     15342       123  PMPE      H15S          -17.7376127603        8.2192516702       -1.0270218055  MEMB      123             0.0000000000
     15343       123  PMPE      C216          -16.5469121615        6.6212558276       -0.5563357350  MEMB      123             0.0000000000
     15344       123  PMPE      H16R          -16.1036639537        7.2817659569        0.2192795003  MEMB      123             0.0000000000
     15345       123  PMPE      H16S          -17.4048372598        5.9841414651       -0.2524104471  MEMB      123             0.0000000000
     15346       123  PMPE      H16T          -15.7207342027        6.0746395244       -1.0592890829  MEMB      123             0.0000000000
     15347       123  PMPE      C33           -19.0530261141        8.8670464282      -10.2980983337  MEMB      123             0.0000000000
     15348       123  PMPE      H3X           -19.4424563399        8.3157891640      -11.1805837410  MEMB      123             0.0000000000
     15349       123  PMPE      H3Y           -19.6976389274        9.7637124814      -10.1765032093  MEMB      123             0.0000000000
     15350       123  PMPE      C34           -18.9731962054        7.9724990972       -9.0537350367  MEMB      123             0.0000000000
     15351       123  PMPE      H4X           -18.3633574722        8.5309349941       -8.3117322924  MEMB      123             0.0000000000
     15352       123  PMPE      H4Y           -18.4062474372        7.0574482466       -9.3286378150  MEMB      123             0.0000000000
     15353       123  PMPE      C35           -20.3660603520        7.6512587275       -8.5223257890  MEMB      123             0.0000000000
     15354       123  PMPE      H5X           -20.9378812424        7.3492470162       -9.4257261977  MEMB      123             0.0000000000
     15355       123  PMPE      H5Y           -20.8949556580        8.5966786440       -8.2758064269  MEMB      123             0.0000000000
     15356       123  PMPE      C36           -20.3973074086        6.6681402974       -7.4301832508  MEMB      123             0.0000000000
     15357       123  PMPE      H6X           -19.6045707513        5.9343834158       -7.6899729588  MEMB      123             0.0000000000
     15358       123  PMPE      H6Y           -21.4293209035        6.2574837938       -7.4552845685  MEMB      123             0.0000000000
     15359       123  PMPE      C37           -20.3542490602        7.1948507892       -6.0187024559  MEMB      123             0.0000000000
     15360       123  PMPE      H7X           -19.9996636176        8.2461870647       -5.9614095957  MEMB      123             0.0000000000
     15361       123  PMPE      H7Y           -19.5248795470        6.7807309072       -5.4063528905  MEMB      123             0.0000000000
     15362       123  PMPE      C38           -21.6203289459        6.9852374428       -5.1438076663  MEMB      123             0.0000000000
     15363       123  PMPE      H8X           -21.5151593721        5.9375651551       -4.7893450838  MEMB      123             0.0000000000
     15364       123  PMPE      H8Y           -22.5461293678        7.0774630733       -5.7510221101  MEMB      123             0.0000000000
     15365       123  PMPE      C39           -21.5917476898        8.0610807092       -4.0180612505  MEMB      123             0.0000000000
     15366       123  PMPE      H9X           -21.2226097236        8.9574185490       -4.5608660175  MEMB      123             0.0000000000
     15367       123  PMPE      H9Y           -20.7843458540        7.7192101944       -3.3357506679  MEMB      123             0.0000000000
     15368       123  PMPE      C310          -22.9787639492        8.2244519179       -3.4102081075  MEMB      123             0.0000000000
     15369       123  PMPE      H10X          -23.4450592829        7.2525993317       -3.1411495146  MEMB      123             0.0000000000
     15370       123  PMPE      H10Y          -23.6104257191        8.5873844763       -4.2490192279  MEMB      123             0.0000000000
     15371       123  PMPE      C311          -23.1263706432        9.3449789532       -2.3475578111  MEMB      123             0.0000000000
     15372       123  PMPE      H11X          -24.0328726619        9.0602866658       -1.7717755244  MEMB      123             0.0000000000
     15373       123  PMPE      H11Y          -23.3661434653       10.2904127677       -2.8795214379  MEMB      123             0.0000000000
     15374       123  PMPE      C312          -22.0015661371        9.5029875782       -1.2952223670  MEMB      123             0.0000000000
     15375       123  PMPE      H12X          -22.1882117174       10.4804857688       -0.8012775547  MEMB      123             0.0000000000
     15376       123  PMPE      H12Y          -21.0587039179        9.7831776917       -1.8117731195  MEMB      123             0.0000000000
     15377       123  PMPE      C313          -21.8480884800        8.3451571049       -0.3157769502  MEMB      123             0.0000000000
     15378       123  PMPE      H13X          -21.4763710502        7.5583523577       -1.0064906383  MEMB      123             0.0000000000
     15379       123  PMPE      H13Y          -22.7887713405        8.0573954457        0.2005853214  MEMB      123             0.0000000000
     15380       123  PMPE      C314          -20.8419783235        8.7177867388        0.7287261445  MEMB      123             0.0000000000
     15381       123  PMPE      H14X          -21.1817499409        9.5984781036        1.3146100791  MEMB      123             0.0000000000
     15382       123  PMPE      H14Y          -19.8753717824        8.9910421733        0.2540434851  MEMB      123             0.0000000000
     15383       123  PMPE      C315          -20.5420113761        7.5085230534        1.7160635281  MEMB      123             0.0000000000
     15384       123  PMPE      H15X          -21.3770981224        7.2301120886        2.3938824254  MEMB      123             0.0000000000
     15385       123  PMPE      H15Y          -19.6806829864        7.9120054451        2.2902020094  MEMB      123             0.0000000000
     15386       123  PMPE      C316          -20.0915808761        6.2250009652        0.9695395717  MEMB      123             0.0000000000
     15387       123  PMPE      H16X          -19.4325984091        5.6902750775        1.6865698910  MEMB      123             0.0000000000
     15388       123  PMPE      H16Y          -19.5732027514        6.5269092693        0.0344161891  MEMB      123             0.0000000000
     15389       123  PMPE      H16Z          -21.0360369351        5.6477482436        0.8741293392  MEMB      123             0.0000000000
     15390       124  OYPE      N             -24.6901040776       -0.3751633660      -20.7681834707  MEMB      124             0.0000000000
     15391       124  OYPE      HN1           -24.8672248520       -0.6033703500      -21.7672577438  MEMB      124             0.0000000000
     15392       124  OYPE      HN2           -25.1847191074       -1.1127539879      -20.2269662272  MEMB      124             0.0000000000
     15393       124  OYPE      HN3           -25.0557165876        0.5711648760      -20.5392940450  MEMB      124             0.0000000000
     15394       124  OYPE      C12           -23.2272535392       -0.6443218694      -20.4008545944  MEMB      124             0.0000000000
     15395       124  OYPE      H12A          -22.4996949692       -0.1859342920      -21.1043176730  MEMB      124             0.0000000000
     15396       124  OYPE      H12B          -23.1864775997       -1.7443590772      -20.5511102180  MEMB      124             0.0000000000
     15397       124  OYPE      C11           -23.1147595025       -0.3678675848      -18.8953460499  MEMB      124             0.0000000000
     15398       124  OYPE      H11A          -22.1025401755       -0.7119516422      -18.5931221650  MEMB      124             0.0000000000
     15399       124  OYPE      H11B          -23.8881036270       -0.9394339292      -18.3389542877  MEMB      124             0.0000000000
     15400       124  OYPE      P             -21.9039909424        1.9881873476      -18.4543506004  MEMB      124             0.0000000000
     15401       124  OYPE      O13           -22.3596618170        3.3583196534      -18.5827938688  MEMB      124             0.0000000000
     15402       124  OYPE      O14           -20.8157431405        1.5381355778      -19.3568920934  MEMB      124             0.0000000000
     15403       124  OYPE      O11           -21.3651628810        1.8399172769      -16.9038456113  MEMB      124             0.0000000000
     15404       124  OYPE      O12           -23.1904432971        1.0879855251      -18.6377337151  MEMB      124             0.0000000000
     15405       124  OYPE      C1            -21.1591951317        0.4640069150      -16.4402234506  MEMB      124             0.0000000000
     15406       124  OYPE      HA            -20.2950937586       -0.0149972191      -16.9483621345  MEMB      124             0.0000000000
     15407       124  OYPE      HB            -22.1266425616       -0.0785433164      -16.5035140285  MEMB      124             0.0000000000
     15408       124  OYPE      C2            -20.7240811963        0.4871399979      -14.9761236497  MEMB      124             0.0000000000
     15409       124  OYPE      HS            -20.5705797151       -0.5414339072      -14.5852349688  MEMB      124             0.0000000000
     15410       124  OYPE      O21           -21.7036700987        1.1641038572      -14.2665748339  MEMB      124             0.0000000000
     15411       124  OYPE      C21           -22.6093907106        0.4794531060      -13.5655707372  MEMB      124             0.0000000000
     15412       124  OYPE      O22           -22.9423243081       -0.6613089378      -13.6775246560  MEMB      124             0.0000000000
     15413       124  OYPE      C22           -23.3338200980        1.4657284658      -12.6315890690  MEMB      124             0.0000000000
     15414       124  OYPE      H2R           -24.2421863057        1.7840810682      -13.1864253147  MEMB      124             0.0000000000
     15415       124  OYPE      H2S           -22.7063027854        2.3599679185      -12.4294039871  MEMB      124             0.0000000000
     15416       124  OYPE      C3            -19.3613899134        1.2329349035      -14.8110133064  MEMB      124             0.0000000000
     15417       124  OYPE      HX            -19.3796026890        2.1924388758      -15.3707823674  MEMB      124             0.0000000000
     15418       124  OYPE      HY            -18.5950428607        0.7066261053      -15.4193161553  MEMB      124             0.0000000000
     15419       124  OYPE      O31           -19.0838444478        1.4743687846      -13.4374186227  MEMB      124             0.0000000000
     15420       124  OYPE      C31           -18.7635566828        0.4103458911      -12.7488842370  MEMB      124             0.0000000000
     15421       124  OYPE      O32           -18.6880522440       -0.7389973396      -13.2953208132  MEMB      124             0.0000000000
     15422       124  OYPE      C32           -18.6537036832        0.6913835852      -11.2669812094  MEMB      124             0.0000000000
     15423       124  OYPE      H2X           -17.8523149081        1.4298018982      -11.0505661883  MEMB      124             0.0000000000
     15424       124  OYPE      H2Y           -19.6366545265        1.0665457375      -10.9100750457  MEMB      124             0.0000000000
     15425       124  OYPE      C23           -23.7313728353        0.8922066546      -11.2750185121  MEMB      124             0.0000000000
     15426       124  OYPE      H3R           -22.8795025587        0.6699183441      -10.5973561646  MEMB      124             0.0000000000
     15427       124  OYPE      H3S           -24.1570124327       -0.1161811664      -11.4655594247  MEMB      124             0.0000000000
     15428       124  OYPE      C24           -24.8173576206        1.6509607517      -10.4542882706  MEMB      124             0.0000000000
     15429       124  OYPE      H4R           -25.7134861135        1.6733935695      -11.1106198344  MEMB      124             0.0000000000
     15430       124  OYPE      H4S           -24.4970127271        2.6660616867      -10.1360582684  MEMB      124             0.0000000000
     15431       124  OYPE      C25           -25.2765791897        0.9421178545       -9.2202797592  MEMB      124             0.0000000000
     15432       124  OYPE      H5R           -25.6929225580       -0.0441525860       -9.5173484815  MEMB      124             0.0000000000
     15433       124  OYPE      H5S           -26.1867365549        1.4705371511       -8.8643188004  MEMB      124             0.0000000000
     15434       124  OYPE      C26           -24.2833655777        0.8590725704       -7.9761827433  MEMB      124             0.0000000000
     15435       124  OYPE      H6R           -24.0402297234        1.8734817654       -7.5938476565  MEMB      124             0.0000000000
     15436       124  OYPE      H6S           -23.4376114479        0.2312859261       -8.3296011937  MEMB      124             0.0000000000
     15437       124  OYPE      C27           -24.9687348351        0.0092291949       -6.7786786761  MEMB      124             0.0000000000
     15438       124  OYPE      H7R           -25.4222535590       -0.9516590022       -7.1032325583  MEMB      124             0.0000000000
     15439       124  OYPE      H7S           -25.8017909122        0.6125281923       -6.3587157580  MEMB      124             0.0000000000
     15440       124  OYPE      C28           -23.8388103020       -0.2388272453       -5.7327239327  MEMB      124             0.0000000000
     15441       124  OYPE      H8R           -23.0816157845        0.5730083174       -5.7763164795  MEMB      124             0.0000000000
     15442       124  OYPE      H8S           -23.3797749943       -1.1777762601       -6.1095296431  MEMB      124             0.0000000000
     15443       124  OYPE      C29           -24.4252314107       -0.5612143658       -4.3323880341  MEMB      124             0.0000000000
     15444       124  OYPE      H9R           -24.0211739182       -1.4604646313       -3.8444470682  MEMB      124             0.0000000000
     15445       124  OYPE      C210          -25.3840575457        0.1873203057       -3.6846037121  MEMB      124             0.0000000000
     15446       124  OYPE      H10R          -25.6638106920       -0.0822625632       -2.6554959255  MEMB      124             0.0000000000
     15447       124  OYPE      C211          -26.0895637902        1.4696159715       -4.0971290779  MEMB      124             0.0000000000
     15448       124  OYPE      H11R          -27.0566013585        1.3193182038       -4.6230285320  MEMB      124             0.0000000000
     15449       124  OYPE      H11S          -25.3544250762        2.0669213075       -4.6777477924  MEMB      124             0.0000000000
     15450       124  OYPE      C212          -26.4741901949        2.4431866510       -2.9720081645  MEMB      124             0.0000000000
     15451       124  OYPE      H12R          -27.2881458186        1.9614891138       -2.3891141020  MEMB      124             0.0000000000
     15452       124  OYPE      H12S          -26.9332444506        3.3158557729       -3.4839047781  MEMB      124             0.0000000000
     15453       124  OYPE      C213          -25.3172166766        2.9080105819       -2.0533712281  MEMB      124             0.0000000000
     15454       124  OYPE      H13R          -24.4450695307        3.2561084360       -2.6470955484  MEMB      124             0.0000000000
     15455       124  OYPE      H13S          -25.0937418369        1.9575408003       -1.5232892277  MEMB      124             0.0000000000
     15456       124  OYPE      C214          -25.7204020365        4.0094993649       -1.0034229084  MEMB      124             0.0000000000
     15457       124  OYPE      H14R          -26.1592747673        4.7835773728       -1.6686410935  MEMB      124             0.0000000000
     15458       124  OYPE      H14S          -24.8378871948        4.3893189933       -0.4455461978  MEMB      124             0.0000000000
     15459       124  OYPE      C215          -26.5956001704        3.4715124628        0.1285052158  MEMB      124             0.0000000000
     15460       124  OYPE      H15R          -27.5847185330        3.2142297910       -0.3071234104  MEMB      124             0.0000000000
     15461       124  OYPE      H15S          -26.6639257043        4.2864206587        0.8805529766  MEMB      124             0.0000000000
     15462       124  OYPE      C216          -26.1721089808        2.1459004469        0.8059116527  MEMB      124             0.0000000000
     15463       124  OYPE      H16R          -25.2290459992        2.2980846042        1.3731796906  MEMB      124             0.0000000000
     15464       124  OYPE      H16S          -26.0547500253        1.3304391303        0.0605467463  MEMB      124             0.0000000000
     15465       124  OYPE      H16T          -26.9220610978        1.9047069306        1.5893134457  MEMB      124             0.0000000000
     15466       124  OYPE      C33           -18.2526980536       -0.5679354600      -10.4850027781  MEMB      124             0.0000000000
     15467       124  OYPE      H3X           -17.3639119193       -1.0442054515      -10.9514221074  MEMB      124             0.0000000000
     15468       124  OYPE      H3Y           -19.1284203503       -1.2515564918      -10.4946874541  MEMB      124             0.0000000000
     15469       124  OYPE      C34           -17.8550746937       -0.2111286197       -8.9729535441  MEMB      124             0.0000000000
     15470       124  OYPE      H4X           -17.3665524779       -1.0516176789       -8.4351389860  MEMB      124             0.0000000000
     15471       124  OYPE      H4Y           -17.0843940369        0.5846156710       -9.0575884294  MEMB      124             0.0000000000
     15472       124  OYPE      C35           -19.0977894124        0.2500236102       -8.2146224149  MEMB      124             0.0000000000
     15473       124  OYPE      H5X           -18.9777825526       -0.1414483454       -7.1818255310  MEMB      124             0.0000000000
     15474       124  OYPE      H5Y           -20.0773392204       -0.1132841337       -8.5925257825  MEMB      124             0.0000000000
     15475       124  OYPE      C36           -19.3123926864        1.8110143428       -8.1135805053  MEMB      124             0.0000000000
     15476       124  OYPE      H6X           -18.4480799268        2.3012698304       -7.6166568099  MEMB      124             0.0000000000
     15477       124  OYPE      H6Y           -19.4095952418        2.3779762672       -9.0640681688  MEMB      124             0.0000000000
     15478       124  OYPE      C37           -20.3696555238        2.0781712194       -7.0661372115  MEMB      124             0.0000000000
     15479       124  OYPE      H7X           -21.2063805544        1.4319991539       -7.4077126081  MEMB      124             0.0000000000
     15480       124  OYPE      H7Y           -20.0911090183        1.7695858017       -6.0358420118  MEMB      124             0.0000000000
     15481       124  OYPE      C38           -20.7715609892        3.5701357893       -6.9182346065  MEMB      124             0.0000000000
     15482       124  OYPE      H8X           -19.9905739907        4.1360234866       -6.3667357174  MEMB      124             0.0000000000
     15483       124  OYPE      H8Y           -20.7827166779        4.0595653278       -7.9155587031  MEMB      124             0.0000000000
     15484       124  OYPE      C39           -22.1276945470        3.8049870130       -6.5034161819  MEMB      124             0.0000000000
     15485       124  OYPE      H9X           -22.8359469676        4.0982855168       -7.2923100791  MEMB      124             0.0000000000
     15486       124  OYPE      C310          -22.6888527900        3.9776359043       -5.2625325566  MEMB      124             0.0000000000
     15487       124  OYPE      H10X          -23.7431271723        4.2008633191       -5.0419084666  MEMB      124             0.0000000000
     15488       124  OYPE      C311          -21.8185588598        3.8526605791       -3.9911601482  MEMB      124             0.0000000000
     15489       124  OYPE      H11X          -20.8037507889        4.2730221782       -4.1578385604  MEMB      124             0.0000000000
     15490       124  OYPE      H11Y          -22.1848138683        4.3988805974       -3.0957150051  MEMB      124             0.0000000000
     15491       124  OYPE      C312          -21.7452035550        2.3420853697       -3.4891959458  MEMB      124             0.0000000000
     15492       124  OYPE      H12X          -21.3029529788        1.7747363391       -4.3358661124  MEMB      124             0.0000000000
     15493       124  OYPE      H12Y          -22.8008388136        2.0262694200       -3.3470147435  MEMB      124             0.0000000000
     15494       124  OYPE      C313          -20.8811966066        2.3972717776       -2.2700254381  MEMB      124             0.0000000000
     15495       124  OYPE      H13X          -20.0200402016        3.0949829641       -2.3470311899  MEMB      124             0.0000000000
     15496       124  OYPE      H13Y          -21.4322117265        2.6959100871       -1.3526833779  MEMB      124             0.0000000000
     15497       124  OYPE      C314          -20.3501608767        1.0024561461       -1.8464642817  MEMB      124             0.0000000000
     15498       124  OYPE      H14X          -19.9484216332        1.1047832705       -0.8157100982  MEMB      124             0.0000000000
     15499       124  OYPE      H14Y          -19.5553708586        0.6992539749       -2.5610974001  MEMB      124             0.0000000000
     15500       124  OYPE      C315          -21.4863910413       -0.1194894846       -1.8626524164  MEMB      124             0.0000000000
     15501       124  OYPE      H15X          -20.8793764320       -0.9692329747       -1.4834564786  MEMB      124             0.0000000000
     15502       124  OYPE      H15Y          -21.7704339483       -0.3311270589       -2.9156722462  MEMB      124             0.0000000000
     15503       124  OYPE      C316          -22.7059893856        0.1197261532       -0.9844579432  MEMB      124             0.0000000000
     15504       124  OYPE      H16X          -23.6075703125       -0.4004802206       -1.3728640534  MEMB      124             0.0000000000
     15505       124  OYPE      H16Y          -22.9766808351        1.1825486583       -0.8071011276  MEMB      124             0.0000000000
     15506       124  OYPE      C317          -22.5847652980       -0.4791052951        0.4355277640  MEMB      124             0.0000000000
     15507       124  OYPE      H17X          -23.3499660324        0.0220051238        1.0661437422  MEMB      124             0.0000000000
     15508       124  OYPE      H17Y          -21.5927308006       -0.2916669966        0.8992693390  MEMB      124             0.0000000000
     15509       124  OYPE      C318          -22.8580915947       -2.0051533316        0.5949394959  MEMB      124             0.0000000000
     15510       124  OYPE      H18X          -23.6091742272       -2.4321425288       -0.1035436138  MEMB      124             0.0000000000
     15511       124  OYPE      H18Y          -21.8785909301       -2.4482580246        0.3146582576  MEMB      124             0.0000000000
     15512       124  OYPE      H18Z          -23.0120061913       -2.3438544784        1.6417970342  MEMB      124             0.0000000000
     15513       125  PMPE      N              12.8223524317       20.6275684566      -17.6406541621  MEMB      125             0.0000000000
     15514       125  PMPE      HN1            12.2399040851       21.4876138493      -17.6923821658  MEMB      125             0.0000000000
     15515       125  PMPE      HN2            13.2656231105       20.6141767342      -16.6999459841  MEMB      125             0.0000000000
     15516       125  PMPE      HN3            13.5556620105       20.6133617667      -18.3779840243  MEMB      125             0.0000000000
     15517       125  PMPE      C12            12.1166800762       19.3663556957      -17.8187807439  MEMB      125             0.0000000000
     15518       125  PMPE      H12A           11.2778336860       19.3456443638      -17.0906126547  MEMB      125             0.0000000000
     15519       125  PMPE      H12B           12.7909929855       18.4926871793      -17.6910061676  MEMB      125             0.0000000000
     15520       125  PMPE      C11            11.5733205745       19.4223251451      -19.2943547651  MEMB      125             0.0000000000
     15521       125  PMPE      H11A           11.0918857738       18.4411544054      -19.4939684610  MEMB      125             0.0000000000
     15522       125  PMPE      H11B           12.4999413815       19.5119491154      -19.9007065357  MEMB      125             0.0000000000
     15523       125  PMPE      P               9.2012694131       20.4957945808      -19.5090928771  MEMB      125             0.0000000000
     15524       125  PMPE      O13             8.6133323026       19.7789746561      -20.6980130868  MEMB      125             0.0000000000
     15525       125  PMPE      O14             8.6195491647       21.8083780933      -19.1871446644  MEMB      125             0.0000000000
     15526       125  PMPE      O11             8.8832225725       19.5905589238      -18.2084824202  MEMB      125             0.0000000000
     15527       125  PMPE      O12            10.8387526632       20.5759148502      -19.6434772787  MEMB      125             0.0000000000
     15528       125  PMPE      C1              7.5612444553       19.7638303565      -17.6813831670  MEMB      125             0.0000000000
     15529       125  PMPE      HA              7.3499520239       18.7495460190      -17.2802548431  MEMB      125             0.0000000000
     15530       125  PMPE      HB              6.7609435432       19.9876141085      -18.4187843892  MEMB      125             0.0000000000
     15531       125  PMPE      C2              7.4570707303       20.7996079561      -16.5286622299  MEMB      125             0.0000000000
     15532       125  PMPE      HS              7.5693638488       21.7571570440      -17.0807591471  MEMB      125             0.0000000000
     15533       125  PMPE      O21             8.4710441826       20.5937760868      -15.5146748957  MEMB      125             0.0000000000
     15534       125  PMPE      C21             9.6283263981       21.2886094298      -15.5976659663  MEMB      125             0.0000000000
     15535       125  PMPE      O22             9.8145070071       22.1932176271      -16.3590942749  MEMB      125             0.0000000000
     15536       125  PMPE      C22            10.5947770082       20.7596247982      -14.5319746800  MEMB      125             0.0000000000
     15537       125  PMPE      H2R            11.6195768006       21.1297253499      -14.7490738523  MEMB      125             0.0000000000
     15538       125  PMPE      H2S            10.5575902685       19.6591878042      -14.3837298429  MEMB      125             0.0000000000
     15539       125  PMPE      C3              6.0773312864       20.7179407870      -15.8488647173  MEMB      125             0.0000000000
     15540       125  PMPE      HX              5.2838758872       20.3583422692      -16.5383853472  MEMB      125             0.0000000000
     15541       125  PMPE      HY              5.7255728122       21.6894596085      -15.4405294383  MEMB      125             0.0000000000
     15542       125  PMPE      O31             6.0104997940       19.6833252604      -14.8530056950  MEMB      125             0.0000000000
     15543       125  PMPE      C31             6.2817592220       20.0439369728      -13.5569318338  MEMB      125             0.0000000000
     15544       125  PMPE      O32             6.5274722779       21.1701146502      -13.1806408331  MEMB      125             0.0000000000
     15545       125  PMPE      C32             6.2686406600       18.8377818774      -12.5842931543  MEMB      125             0.0000000000
     15546       125  PMPE      H2X             7.1756886899       18.1968573019      -12.6125863837  MEMB      125             0.0000000000
     15547       125  PMPE      H2Y             5.3799392995       18.2300925874      -12.8586012796  MEMB      125             0.0000000000
     15548       125  PMPE      C23            10.2227855240       21.4725890172      -13.1921809569  MEMB      125             0.0000000000
     15549       125  PMPE      H3R             9.1686797782       21.2326044024      -12.9360769266  MEMB      125             0.0000000000
     15550       125  PMPE      H3S            10.2536396368       22.5454849590      -13.4789970635  MEMB      125             0.0000000000
     15551       125  PMPE      C24            11.1536904252       21.0834485153      -12.0623537299  MEMB      125             0.0000000000
     15552       125  PMPE      H4R            11.2021199483       21.8296365731      -11.2406609488  MEMB      125             0.0000000000
     15553       125  PMPE      H4S            12.2322539656       21.0583877540      -12.3276718099  MEMB      125             0.0000000000
     15554       125  PMPE      C25            10.8571143353       19.6930600192      -11.4931350684  MEMB      125             0.0000000000
     15555       125  PMPE      H5R            10.7892202428       19.1196562119      -12.4423025034  MEMB      125             0.0000000000
     15556       125  PMPE      H5S             9.9215677095       19.7027266718      -10.8939857989  MEMB      125             0.0000000000
     15557       125  PMPE      C26            11.9276542806       19.0136693809      -10.5820975536  MEMB      125             0.0000000000
     15558       125  PMPE      H6R            12.8858261700       19.0926529549      -11.1388644709  MEMB      125             0.0000000000
     15559       125  PMPE      H6S            11.7721398887       17.9147150752      -10.5327481009  MEMB      125             0.0000000000
     15560       125  PMPE      C27            12.0788774102       19.6876804958       -9.1701860465  MEMB      125             0.0000000000
     15561       125  PMPE      H7R            12.3661801378       20.7298577550       -9.4263985793  MEMB      125             0.0000000000
     15562       125  PMPE      H7S            12.9854951599       19.2061995836       -8.7452840513  MEMB      125             0.0000000000
     15563       125  PMPE      C28            10.7731563563       19.6262101838       -8.4248399321  MEMB      125             0.0000000000
     15564       125  PMPE      H8R             9.9856161864       20.2508259238       -8.8980806985  MEMB      125             0.0000000000
     15565       125  PMPE      H8S            10.8465427069       20.1239206108       -7.4342751149  MEMB      125             0.0000000000
     15566       125  PMPE      C29            10.2758803944       18.1804020658       -8.2409067953  MEMB      125             0.0000000000
     15567       125  PMPE      H9R            10.1824466040       17.5055691655       -9.1185125461  MEMB      125             0.0000000000
     15568       125  PMPE      C217            9.1748049711       18.0281098404       -7.1824314591  MEMB      125             0.0000000000
     15569       125  PMPE      H17R            8.4131276785       17.3282962703       -7.5033644760  MEMB      125             0.0000000000
     15570       125  PMPE      H17S            8.9745302596       18.9779160693       -6.7021746115  MEMB      125             0.0000000000
     15571       125  PMPE      C210           10.5654844184       17.3650809464       -6.9903026403  MEMB      125             0.0000000000
     15572       125  PMPE      H10R           10.6109045845       16.2910642337       -7.2709198315  MEMB      125             0.0000000000
     15573       125  PMPE      C211           11.6213504761       17.9938448211       -5.9785385923  MEMB      125             0.0000000000
     15574       125  PMPE      H11R           11.3825512844       18.9264000884       -5.4238886149  MEMB      125             0.0000000000
     15575       125  PMPE      H11S           12.5952799433       18.1951563273       -6.4737720803  MEMB      125             0.0000000000
     15576       125  PMPE      C212           12.0595716596       16.9454810258       -4.9413164223  MEMB      125             0.0000000000
     15577       125  PMPE      H12R           12.1834118629       15.9687868246       -5.4561492035  MEMB      125             0.0000000000
     15578       125  PMPE      H12S           11.2012190291       16.7795283129       -4.2557426878  MEMB      125             0.0000000000
     15579       125  PMPE      C213           13.3602689078       17.1244267683       -4.0925970502  MEMB      125             0.0000000000
     15580       125  PMPE      H13R           14.2544507193       17.4381812821       -4.6725254812  MEMB      125             0.0000000000
     15581       125  PMPE      H13S           13.6305173907       16.0981574504       -3.7638744214  MEMB      125             0.0000000000
     15582       125  PMPE      C214           13.2325142202       17.8721752910       -2.8010510329  MEMB      125             0.0000000000
     15583       125  PMPE      H14R           14.1874891921       17.7806177706       -2.2407283075  MEMB      125             0.0000000000
     15584       125  PMPE      H14S           12.3795213727       17.5059481559       -2.1906396562  MEMB      125             0.0000000000
     15585       125  PMPE      C215           12.9158579823       19.3716026336       -2.9309415665  MEMB      125             0.0000000000
     15586       125  PMPE      H15R           12.6897411627       19.9048792083       -1.9828863200  MEMB      125             0.0000000000
     15587       125  PMPE      H15S           11.9904318373       19.4340946203       -3.5424994858  MEMB      125             0.0000000000
     15588       125  PMPE      C216           14.0685531071       20.1759531662       -3.5818770272  MEMB      125             0.0000000000
     15589       125  PMPE      H16R           14.9862927447       20.2426037178       -2.9592755357  MEMB      125             0.0000000000
     15590       125  PMPE      H16S           14.4298582183       19.7784456840       -4.5543823753  MEMB      125             0.0000000000
     15591       125  PMPE      H16T           13.7020701311       21.1925993685       -3.8396387745  MEMB      125             0.0000000000
     15592       125  PMPE      C33             5.9617018646       19.4623585750      -11.1606760297  MEMB      125             0.0000000000
     15593       125  PMPE      H3X             5.0445080483       20.0893169194      -11.1609730410  MEMB      125             0.0000000000
     15594       125  PMPE      H3Y             6.8255946780       20.1183754896      -10.9205681862  MEMB      125             0.0000000000
     15595       125  PMPE      C34             5.9032975579       18.4715265647       -9.9375997239  MEMB      125             0.0000000000
     15596       125  PMPE      H4X             6.6198507857       17.6242317229       -9.9920411407  MEMB      125             0.0000000000
     15597       125  PMPE      H4Y             4.8798407450       18.0500515557      -10.0335998871  MEMB      125             0.0000000000
     15598       125  PMPE      C35             6.0995325807       19.0253329175       -8.5350667552  MEMB      125             0.0000000000
     15599       125  PMPE      H5X             5.4731678166       19.9181958034       -8.3234446126  MEMB      125             0.0000000000
     15600       125  PMPE      H5Y             7.1882547403       19.1746366284       -8.3716231238  MEMB      125             0.0000000000
     15601       125  PMPE      C36             5.6512252488       17.9711636661       -7.4728680655  MEMB      125             0.0000000000
     15602       125  PMPE      H6X             6.4233492326       17.1730111808       -7.4397280420  MEMB      125             0.0000000000
     15603       125  PMPE      H6Y             4.7329323614       17.4401722737       -7.8031831678  MEMB      125             0.0000000000
     15604       125  PMPE      C37             5.4073833792       18.4815394160       -6.0466414889  MEMB      125             0.0000000000
     15605       125  PMPE      H7X             5.1639831891       17.5732220209       -5.4550024098  MEMB      125             0.0000000000
     15606       125  PMPE      H7Y             4.6431959165       19.2872644542       -6.0127907046  MEMB      125             0.0000000000
     15607       125  PMPE      C38             6.6181766007       19.0409212380       -5.3251646710  MEMB      125             0.0000000000
     15608       125  PMPE      H8X             7.1896220973       19.6995746195       -6.0136025713  MEMB      125             0.0000000000
     15609       125  PMPE      H8Y             7.3068098381       18.2606511939       -4.9362126330  MEMB      125             0.0000000000
     15610       125  PMPE      C39             6.2451904131       19.8738645475       -4.1158264401  MEMB      125             0.0000000000
     15611       125  PMPE      H9X             6.0214803770       19.2305919340       -3.2380589274  MEMB      125             0.0000000000
     15612       125  PMPE      H9Y             5.4811240202       20.6188428043       -4.4249065204  MEMB      125             0.0000000000
     15613       125  PMPE      C310            7.4778702689       20.6938325964       -3.6504275217  MEMB      125             0.0000000000
     15614       125  PMPE      H10X            7.0999175710       21.4461255214       -2.9254946362  MEMB      125             0.0000000000
     15615       125  PMPE      H10Y            7.9183646173       21.3633845517       -4.4198338294  MEMB      125             0.0000000000
     15616       125  PMPE      C311            8.6216049992       20.0033622786       -2.9367902372  MEMB      125             0.0000000000
     15617       125  PMPE      H11X            9.2771866581       20.8762083103       -2.7302138085  MEMB      125             0.0000000000
     15618       125  PMPE      H11Y            9.1984048397       19.4713805905       -3.7233129049  MEMB      125             0.0000000000
     15619       125  PMPE      C312            8.2925525778       19.1798295909       -1.6875633767  MEMB      125             0.0000000000
     15620       125  PMPE      H12X            7.6725750037       18.3228790266       -2.0275405211  MEMB      125             0.0000000000
     15621       125  PMPE      H12Y            7.6079406965       19.6665534510       -0.9604262349  MEMB      125             0.0000000000
     15622       125  PMPE      C313            9.6509968182       18.6037754774       -1.1571457619  MEMB      125             0.0000000000
     15623       125  PMPE      H13X           10.3369044838       19.4775243790       -1.1775092756  MEMB      125             0.0000000000
     15624       125  PMPE      H13Y            9.9339543744       17.7631072704       -1.8261248814  MEMB      125             0.0000000000
     15625       125  PMPE      C314            9.4859205925       18.0432998116        0.3118771351  MEMB      125             0.0000000000
     15626       125  PMPE      H14X           10.4800484684       17.6347656508        0.5931773900  MEMB      125             0.0000000000
     15627       125  PMPE      H14Y            8.8251301045       17.1509623275        0.3494381074  MEMB      125             0.0000000000
     15628       125  PMPE      C315            9.0016897654       19.1089157858        1.2794189689  MEMB      125             0.0000000000
     15629       125  PMPE      H15X            7.9012533836       19.1467476350        1.1313330807  MEMB      125             0.0000000000
     15630       125  PMPE      H15Y            9.4309016780       20.1146445701        1.0829321851  MEMB      125             0.0000000000
     15631       125  PMPE      C316            9.2761593167       18.8578703979        2.7468661537  MEMB      125             0.0000000000
     15632       125  PMPE      H16X           10.3590808175       18.7241602066        2.9559659969  MEMB      125             0.0000000000
     15633       125  PMPE      H16Y            8.6865498774       17.9559343446        3.0174075563  MEMB      125             0.0000000000
     15634       125  PMPE      H16Z            8.9781245618       19.6781389922        3.4343649592  MEMB      125             0.0000000000
     15635       126  PMPE      N              21.2280488673       -5.5398852504      -16.4434250394  MEMB      126             0.0000000000
     15636       126  PMPE      HN1            20.6918219803       -4.7917078772      -16.9274615563  MEMB      126             0.0000000000
     15637       126  PMPE      HN2            20.5754651941       -6.0951108565      -15.8539684871  MEMB      126             0.0000000000
     15638       126  PMPE      HN3            22.1202243850       -5.1903696548      -16.0391213163  MEMB      126             0.0000000000
     15639       126  PMPE      C12            21.5997774793       -6.5675563100      -17.5708168546  MEMB      126             0.0000000000
     15640       126  PMPE      H12A           20.6474972752       -7.0027324243      -17.9424418094  MEMB      126             0.0000000000
     15641       126  PMPE      H12B           22.1653516575       -7.3256429751      -16.9879350324  MEMB      126             0.0000000000
     15642       126  PMPE      C11            22.5170223678       -6.0463196646      -18.6321982290  MEMB      126             0.0000000000
     15643       126  PMPE      H11A           22.3575293866       -6.5474843834      -19.6108283704  MEMB      126             0.0000000000
     15644       126  PMPE      H11B           23.5148849361       -6.2748924396      -18.2005204721  MEMB      126             0.0000000000
     15645       126  PMPE      P              23.1192464511       -3.8322730622      -19.9610456974  MEMB      126             0.0000000000
     15646       126  PMPE      O13            22.5970735144       -2.4401620485      -19.8313281325  MEMB      126             0.0000000000
     15647       126  PMPE      O14            22.7835589689       -4.5441270351      -21.2187511784  MEMB      126             0.0000000000
     15648       126  PMPE      O11            24.6996994976       -3.9140153604      -19.6155969678  MEMB      126             0.0000000000
     15649       126  PMPE      O12            22.4576880552       -4.6656655038      -18.7268379333  MEMB      126             0.0000000000
     15650       126  PMPE      C1             25.2485677050       -2.8484350131      -18.8309034495  MEMB      126             0.0000000000
     15651       126  PMPE      HA             24.8719873125       -1.8327401774      -19.0776260111  MEMB      126             0.0000000000
     15652       126  PMPE      HB             26.3144695461       -2.8728965928      -19.1432748314  MEMB      126             0.0000000000
     15653       126  PMPE      C2             25.2701246362       -3.1526786070      -17.2977022115  MEMB      126             0.0000000000
     15654       126  PMPE      HS             26.1725165676       -2.7571165642      -16.7843404550  MEMB      126             0.0000000000
     15655       126  PMPE      O21            25.0828548756       -4.5879554801      -17.0673027717  MEMB      126             0.0000000000
     15656       126  PMPE      C21            26.0286793648       -5.2083071331      -16.3495356940  MEMB      126             0.0000000000
     15657       126  PMPE      O22            26.9868860524       -4.6984559672      -15.8115221623  MEMB      126             0.0000000000
     15658       126  PMPE      C22            25.7790380119       -6.7154453832      -16.3843663091  MEMB      126             0.0000000000
     15659       126  PMPE      H2R            26.4656306472       -7.0477275722      -17.1921412146  MEMB      126             0.0000000000
     15660       126  PMPE      H2S            24.6952356942       -6.9051010300      -16.5383930158  MEMB      126             0.0000000000
     15661       126  PMPE      C3             24.0575379333       -2.4386685946      -16.5659875407  MEMB      126             0.0000000000
     15662       126  PMPE      HX             23.1207397038       -2.8915447857      -16.9553884353  MEMB      126             0.0000000000
     15663       126  PMPE      HY             24.0310869349       -1.3334129520      -16.6756762050  MEMB      126             0.0000000000
     15664       126  PMPE      O31            24.1320174957       -2.7992622710      -15.1685355595  MEMB      126             0.0000000000
     15665       126  PMPE      C31            23.6638833593       -1.8694181122      -14.3357886760  MEMB      126             0.0000000000
     15666       126  PMPE      O32            23.1279368054       -0.7563124938      -14.6509119555  MEMB      126             0.0000000000
     15667       126  PMPE      C32            23.7925679307       -2.5089933917      -12.8680267380  MEMB      126             0.0000000000
     15668       126  PMPE      H2X            23.5367670993       -3.5655304565      -13.0974092270  MEMB      126             0.0000000000
     15669       126  PMPE      H2Y            23.0870123153       -2.0133815795      -12.1673978054  MEMB      126             0.0000000000
     15670       126  PMPE      C23            26.2668993556       -7.3091580164      -15.0873139801  MEMB      126             0.0000000000
     15671       126  PMPE      H3R            27.3417080699       -7.1519104240      -14.8541184943  MEMB      126             0.0000000000
     15672       126  PMPE      H3S            26.0995313826       -8.4058956576      -15.0283625215  MEMB      126             0.0000000000
     15673       126  PMPE      C24            25.5083022821       -6.7573486535      -13.8451512045  MEMB      126             0.0000000000
     15674       126  PMPE      H4R            25.7485639188       -5.6891961938      -13.6563507362  MEMB      126             0.0000000000
     15675       126  PMPE      H4S            25.9395350352       -7.3145063151      -12.9861196959  MEMB      126             0.0000000000
     15676       126  PMPE      C25            23.9702960467       -6.7781015702      -13.6663407590  MEMB      126             0.0000000000
     15677       126  PMPE      H5R            23.5360108588       -7.7622932245      -13.9439814081  MEMB      126             0.0000000000
     15678       126  PMPE      H5S            23.6026517904       -6.0470059973      -14.4177780385  MEMB      126             0.0000000000
     15679       126  PMPE      C26            23.5161904377       -6.4043053203      -12.3049602877  MEMB      126             0.0000000000
     15680       126  PMPE      H6R            24.0029489053       -5.4960925754      -11.8895849850  MEMB      126             0.0000000000
     15681       126  PMPE      H6S            23.8609625165       -7.1935728699      -11.6031698317  MEMB      126             0.0000000000
     15682       126  PMPE      C27            21.9523837313       -6.2372123497      -12.1971696379  MEMB      126             0.0000000000
     15683       126  PMPE      H7R            21.4275602994       -7.1952652649      -12.3996931098  MEMB      126             0.0000000000
     15684       126  PMPE      H7S            21.6005850878       -5.5737452008      -13.0159307188  MEMB      126             0.0000000000
     15685       126  PMPE      C28            21.3774292679       -5.7542962973      -10.8837268675  MEMB      126             0.0000000000
     15686       126  PMPE      H8R            21.5620852853       -4.6595918162      -10.8407697729  MEMB      126             0.0000000000
     15687       126  PMPE      H8S            21.9596899903       -6.1075634903      -10.0059483476  MEMB      126             0.0000000000
     15688       126  PMPE      C29            19.8618450686       -6.0316416095      -10.7595638435  MEMB      126             0.0000000000
     15689       126  PMPE      H9R            19.4323518025       -6.9065151858      -11.2929054056  MEMB      126             0.0000000000
     15690       126  PMPE      C217           19.0364721420       -4.7334900184      -11.1886138935  MEMB      126             0.0000000000
     15691       126  PMPE      H17R           18.2567320623       -5.1067297801      -11.8409835540  MEMB      126             0.0000000000
     15692       126  PMPE      H17S           19.5605215691       -3.7857394977      -11.1831245183  MEMB      126             0.0000000000
     15693       126  PMPE      C210           18.8836174098       -5.3558440646       -9.7941593543  MEMB      126             0.0000000000
     15694       126  PMPE      H10R           18.0246895055       -5.9898667826       -9.4866222847  MEMB      126             0.0000000000
     15695       126  PMPE      C211           19.6709699699       -4.6442443507       -8.6828645034  MEMB      126             0.0000000000
     15696       126  PMPE      H11R           18.8788267670       -4.1035030749       -8.1221246079  MEMB      126             0.0000000000
     15697       126  PMPE      H11S           20.5175393173       -4.0660552902       -9.1110457061  MEMB      126             0.0000000000
     15698       126  PMPE      C212           20.2125694167       -5.6549273528       -7.7277554213  MEMB      126             0.0000000000
     15699       126  PMPE      H12R           21.2260851886       -5.9614397461       -8.0641428850  MEMB      126             0.0000000000
     15700       126  PMPE      H12S           19.4399421513       -6.4516402008       -7.6766032263  MEMB      126             0.0000000000
     15701       126  PMPE      C213           20.3280066466       -5.2243221514       -6.2495920220  MEMB      126             0.0000000000
     15702       126  PMPE      H13R           19.4383800311       -4.6287992806       -5.9525435835  MEMB      126             0.0000000000
     15703       126  PMPE      H13S           21.2176406229       -4.5657719689       -6.1537587379  MEMB      126             0.0000000000
     15704       126  PMPE      C214           20.5739432557       -6.4087586927       -5.2846879445  MEMB      126             0.0000000000
     15705       126  PMPE      H14R           21.3873510173       -6.2758545458       -4.5396877565  MEMB      126             0.0000000000
     15706       126  PMPE      H14S           20.9515730604       -7.2403164460       -5.9173237800  MEMB      126             0.0000000000
     15707       126  PMPE      C215           19.2174965679       -6.9254295977       -4.6363560731  MEMB      126             0.0000000000
     15708       126  PMPE      H15R           19.3867768357       -7.8439323071       -4.0346765128  MEMB      126             0.0000000000
     15709       126  PMPE      H15S           18.3608059466       -7.0916707988       -5.3239356815  MEMB      126             0.0000000000
     15710       126  PMPE      C216           18.6447633201       -5.9542424638       -3.5691558732  MEMB      126             0.0000000000
     15711       126  PMPE      H16R           17.6380622213       -6.2608466966       -3.2129704807  MEMB      126             0.0000000000
     15712       126  PMPE      H16S           19.3003064875       -5.8696325986       -2.6761684122  MEMB      126             0.0000000000
     15713       126  PMPE      H16T           18.3654235051       -4.9910512981       -4.0472281470  MEMB      126             0.0000000000
     15714       126  PMPE      C33            25.1931809161       -2.2215419467      -12.4465642447  MEMB      126             0.0000000000
     15715       126  PMPE      H3X            25.5098205882       -1.1729719312      -12.6324697652  MEMB      126             0.0000000000
     15716       126  PMPE      H3Y            25.7313918735       -2.9537855724      -13.0856800966  MEMB      126             0.0000000000
     15717       126  PMPE      C34            25.5667505698       -2.5461044995      -11.0389475631  MEMB      126             0.0000000000
     15718       126  PMPE      H4X            26.6673922807       -2.6357709485      -10.9170095978  MEMB      126             0.0000000000
     15719       126  PMPE      H4Y            25.2397306072       -3.5891404784      -10.8403157289  MEMB      126             0.0000000000
     15720       126  PMPE      C35            24.9715446874       -1.5508479576       -9.9974960163  MEMB      126             0.0000000000
     15721       126  PMPE      H5X            23.8664807298       -1.6467838975       -9.9346386235  MEMB      126             0.0000000000
     15722       126  PMPE      H5Y            25.2510358072       -0.5511418626      -10.3934671812  MEMB      126             0.0000000000
     15723       126  PMPE      C36            25.6173896393       -1.6797596604       -8.6416804883  MEMB      126             0.0000000000
     15724       126  PMPE      H6X            25.2967215839       -0.7537956143       -8.1181495935  MEMB      126             0.0000000000
     15725       126  PMPE      H6Y            26.6996075315       -1.6546199940       -8.8916665347  MEMB      126             0.0000000000
     15726       126  PMPE      C37            25.2820046658       -3.0045692350       -7.9320704659  MEMB      126             0.0000000000
     15727       126  PMPE      H7X            25.9759135996       -3.1162689980       -7.0716435897  MEMB      126             0.0000000000
     15728       126  PMPE      H7Y            25.5194244849       -3.8505890958       -8.6119260357  MEMB      126             0.0000000000
     15729       126  PMPE      C38            23.8082591652       -3.2673171783       -7.4675490590  MEMB      126             0.0000000000
     15730       126  PMPE      H8X            23.5812384987       -4.2266044702       -6.9551522884  MEMB      126             0.0000000000
     15731       126  PMPE      H8Y            23.2229113974       -3.2714915043       -8.4118328018  MEMB      126             0.0000000000
     15732       126  PMPE      C39            23.2846336114       -2.2210394085       -6.4883619925  MEMB      126             0.0000000000
     15733       126  PMPE      H9X            22.1807541721       -2.3463542716       -6.4801463831  MEMB      126             0.0000000000
     15734       126  PMPE      H9Y            23.6376296146       -1.2427794748       -6.8791596703  MEMB      126             0.0000000000
     15735       126  PMPE      C310           23.9767805613       -2.4805224582       -5.2103996733  MEMB      126             0.0000000000
     15736       126  PMPE      H10X           25.0661644036       -2.3278275098       -5.3661174191  MEMB      126             0.0000000000
     15737       126  PMPE      H10Y           23.7818502078       -3.5453567297       -4.9604968832  MEMB      126             0.0000000000
     15738       126  PMPE      C311           23.3905538251       -1.6082091713       -4.0885834485  MEMB      126             0.0000000000
     15739       126  PMPE      H11X           22.4580415219       -2.0905007621       -3.7250767746  MEMB      126             0.0000000000
     15740       126  PMPE      H11Y           23.0450771640       -0.6082293872       -4.4277103181  MEMB      126             0.0000000000
     15741       126  PMPE      C312           24.3586099164       -1.5475438590       -2.9332694287  MEMB      126             0.0000000000
     15742       126  PMPE      H12X           25.1121436735       -0.7467221096       -3.0919886027  MEMB      126             0.0000000000
     15743       126  PMPE      H12Y           24.9879290015       -2.4553139714       -2.8139710469  MEMB      126             0.0000000000
     15744       126  PMPE      C313           23.6937235891       -1.2462849423       -1.6014701157  MEMB      126             0.0000000000
     15745       126  PMPE      H13X           23.0055957764       -2.0793562019       -1.3430269420  MEMB      126             0.0000000000
     15746       126  PMPE      H13Y           23.1471680842       -0.2792265499       -1.6213742201  MEMB      126             0.0000000000
     15747       126  PMPE      C314           24.7045893316       -1.1456089811       -0.4595161633  MEMB      126             0.0000000000
     15748       126  PMPE      H14X           25.1536807287       -0.1342823100       -0.3602374175  MEMB      126             0.0000000000
     15749       126  PMPE      H14Y           25.5326742220       -1.8682483989       -0.6219612468  MEMB      126             0.0000000000
     15750       126  PMPE      C315           23.9984586134       -1.5280082030        0.9202300150  MEMB      126             0.0000000000
     15751       126  PMPE      H15X           24.7764652034       -1.7364456995        1.6854631998  MEMB      126             0.0000000000
     15752       126  PMPE      H15Y           23.4385977890       -2.4436300521        0.6329790034  MEMB      126             0.0000000000
     15753       126  PMPE      C316           23.0452966392       -0.4744290909        1.4151565169  MEMB      126             0.0000000000
     15754       126  PMPE      H16X           22.2774566787       -0.3130461892        0.6285829370  MEMB      126             0.0000000000
     15755       126  PMPE      H16Y           23.4833015019        0.5299036056        1.5989724853  MEMB      126             0.0000000000
     15756       126  PMPE      H16Z           22.4902772115       -0.8147692092        2.3154040202  MEMB      126             0.0000000000
     15757       127  QMPE      N              20.6550847035       -9.9498212494      -19.0246094203  MEMB      127             0.0000000000
     15758       127  QMPE      HN1            20.5255259970       -8.9306278926      -19.1860385663  MEMB      127             0.0000000000
     15759       127  QMPE      HN2            19.9027867581      -10.1991579101      -18.3512008955  MEMB      127             0.0000000000
     15760       127  QMPE      HN3            21.6145420239      -10.1183776207      -18.6604248253  MEMB      127             0.0000000000
     15761       127  QMPE      C12            20.4799733602      -10.6938904375      -20.3078125531  MEMB      127             0.0000000000
     15762       127  QMPE      H12A           21.4008080026      -10.4773742717      -20.8904832443  MEMB      127             0.0000000000
     15763       127  QMPE      H12B           19.5267407660      -10.3081040232      -20.7283329241  MEMB      127             0.0000000000
     15764       127  QMPE      C11            20.4867891990      -12.2062755040      -20.1903948289  MEMB      127             0.0000000000
     15765       127  QMPE      H11A           21.4059623773      -12.4106593371      -19.6007600260  MEMB      127             0.0000000000
     15766       127  QMPE      H11B           20.3623494543      -12.6590626060      -21.1972808708  MEMB      127             0.0000000000
     15767       127  QMPE      P              19.0894188368      -13.7785355092      -18.5454090467  MEMB      127             0.0000000000
     15768       127  QMPE      O13            20.0942859937      -14.8364305919      -18.7598415650  MEMB      127             0.0000000000
     15769       127  QMPE      O14            17.6238248883      -14.2349507112      -18.6225122062  MEMB      127             0.0000000000
     15770       127  QMPE      O11            19.3425953331      -13.2206135021      -17.1158570049  MEMB      127             0.0000000000
     15771       127  QMPE      O12            19.2851940858      -12.4989216564      -19.4335633779  MEMB      127             0.0000000000
     15772       127  QMPE      C1             20.5073600335      -12.6063427534      -16.6487760693  MEMB      127             0.0000000000
     15773       127  QMPE      HA             20.5771879250      -11.6038182574      -17.1224740390  MEMB      127             0.0000000000
     15774       127  QMPE      HB             21.3300383975      -13.3171307743      -16.8774716788  MEMB      127             0.0000000000
     15775       127  QMPE      C2             20.3581208459      -12.5264038439      -15.0345750709  MEMB      127             0.0000000000
     15776       127  QMPE      HS             21.2111477844      -11.9401790605      -14.6308346181  MEMB      127             0.0000000000
     15777       127  QMPE      O21            20.1740425040      -13.8625422561      -14.4755232658  MEMB      127             0.0000000000
     15778       127  QMPE      C21            21.2816241493      -14.6365129327      -14.4959350550  MEMB      127             0.0000000000
     15779       127  QMPE      O22            22.3543339557      -14.2860255503      -14.9435241829  MEMB      127             0.0000000000
     15780       127  QMPE      C22            21.0022070441      -15.9812479446      -13.8302290451  MEMB      127             0.0000000000
     15781       127  QMPE      H2R            20.5301327025      -16.6616280375      -14.5708703840  MEMB      127             0.0000000000
     15782       127  QMPE      H2S            20.2614460101      -15.8709649580      -13.0096002286  MEMB      127             0.0000000000
     15783       127  QMPE      C3             19.1069007820      -11.7124356679      -14.7983654856  MEMB      127             0.0000000000
     15784       127  QMPE      HX             18.1755467946      -12.1248347105      -15.2420180099  MEMB      127             0.0000000000
     15785       127  QMPE      HY             19.2854354487      -10.6752549862      -15.1543183526  MEMB      127             0.0000000000
     15786       127  QMPE      O31            18.9189351928      -11.5640629210      -13.3736969156  MEMB      127             0.0000000000
     15787       127  QMPE      C31            17.9592558346      -12.1885915754      -12.7585834187  MEMB      127             0.0000000000
     15788       127  QMPE      O32            17.2555145214      -13.0399025389      -13.2140205259  MEMB      127             0.0000000000
     15789       127  QMPE      C32            17.8973769895      -11.5620229036      -11.3276704194  MEMB      127             0.0000000000
     15790       127  QMPE      H2X            18.8498386394      -11.7260597717      -10.7797382975  MEMB      127             0.0000000000
     15791       127  QMPE      H2Y            17.5635738356      -10.5027119807      -11.3551832969  MEMB      127             0.0000000000
     15792       127  QMPE      C23            22.2888212878      -16.7835451088      -13.2845806020  MEMB      127             0.0000000000
     15793       127  QMPE      H3R            22.9533705442      -16.9789046543      -14.1532171076  MEMB      127             0.0000000000
     15794       127  QMPE      H3S            21.9099692005      -17.7728260927      -12.9497448872  MEMB      127             0.0000000000
     15795       127  QMPE      C24            22.9942623724      -16.1097947654      -12.0372237346  MEMB      127             0.0000000000
     15796       127  QMPE      H4R            23.3008463361      -15.1385480726      -12.4810784428  MEMB      127             0.0000000000
     15797       127  QMPE      H4S            23.8475904940      -16.6579947140      -11.5837597916  MEMB      127             0.0000000000
     15798       127  QMPE      C25            22.0659321209      -15.8317573045      -10.8373187571  MEMB      127             0.0000000000
     15799       127  QMPE      H5R            21.7141742876      -16.7852769620      -10.3885564769  MEMB      127             0.0000000000
     15800       127  QMPE      H5S            21.1224278651      -15.2809982139      -11.0392705176  MEMB      127             0.0000000000
     15801       127  QMPE      C26            22.8598422441      -15.1418463459       -9.6548260317  MEMB      127             0.0000000000
     15802       127  QMPE      H6R            23.5130651593      -15.9083440572       -9.1856753000  MEMB      127             0.0000000000
     15803       127  QMPE      H6S            22.0881968941      -14.7021109062       -8.9873550850  MEMB      127             0.0000000000
     15804       127  QMPE      C27            23.8305355725      -14.0169765033       -9.9210265172  MEMB      127             0.0000000000
     15805       127  QMPE      H7R            23.2735482911      -13.3493002755      -10.6126150980  MEMB      127             0.0000000000
     15806       127  QMPE      H7S            24.8286595426      -14.3840484467      -10.2424725968  MEMB      127             0.0000000000
     15807       127  QMPE      C28            24.0597091184      -13.2997036899       -8.6309809251  MEMB      127             0.0000000000
     15808       127  QMPE      H8R            24.7709939316      -13.8419992428       -7.9719583034  MEMB      127             0.0000000000
     15809       127  QMPE      H8S            23.0945983473      -13.1679594804       -8.0966349292  MEMB      127             0.0000000000
     15810       127  QMPE      C29            24.5122097481      -11.8650541778       -8.9488813435  MEMB      127             0.0000000000
     15811       127  QMPE      H9R            23.9631048236      -11.2442387818       -9.6887408106  MEMB      127             0.0000000000
     15812       127  QMPE      C217           26.0284002665      -11.7418546840       -9.1019551356  MEMB      127             0.0000000000
     15813       127  QMPE      H17R           26.5527960920      -12.6655081347       -8.8903829887  MEMB      127             0.0000000000
     15814       127  QMPE      H17S           26.3126161372      -11.0927081942       -9.9209296354  MEMB      127             0.0000000000
     15815       127  QMPE      C210           25.2601227750      -11.0352017365       -7.9812956145  MEMB      127             0.0000000000
     15816       127  QMPE      H10R           25.2172255364       -9.9375801604       -8.1477538036  MEMB      127             0.0000000000
     15817       127  QMPE      C211           25.7957402002      -11.5844862524       -6.6385554613  MEMB      127             0.0000000000
     15818       127  QMPE      H11R           25.8410553252      -12.6904968475       -6.5436460547  MEMB      127             0.0000000000
     15819       127  QMPE      H11S           26.8687948216      -11.3381318139       -6.4896111811  MEMB      127             0.0000000000
     15820       127  QMPE      C212           24.9899841842      -11.1600798643       -5.4134954923  MEMB      127             0.0000000000
     15821       127  QMPE      H12R           24.7874113348      -10.0712546088       -5.5014979555  MEMB      127             0.0000000000
     15822       127  QMPE      H12S           25.5801284099      -11.2815057177       -4.4800568498  MEMB      127             0.0000000000
     15823       127  QMPE      C213           23.5801517670      -11.7996168083       -5.2411788660  MEMB      127             0.0000000000
     15824       127  QMPE      H13R           23.1133565294      -11.8301155845       -6.2488957429  MEMB      127             0.0000000000
     15825       127  QMPE      H13S           22.9900208199      -11.2345216751       -4.4883613098  MEMB      127             0.0000000000
     15826       127  QMPE      C214           23.5427390267      -13.2699643328       -4.7337554928  MEMB      127             0.0000000000
     15827       127  QMPE      H14R           23.8315149547      -14.0080428612       -5.5123241564  MEMB      127             0.0000000000
     15828       127  QMPE      H14S           22.5031709679      -13.4407379899       -4.3809726968  MEMB      127             0.0000000000
     15829       127  QMPE      C215           24.3526067558      -13.6346515559       -3.4388664294  MEMB      127             0.0000000000
     15830       127  QMPE      H15R           25.3828185671      -13.3799728561       -3.7676870243  MEMB      127             0.0000000000
     15831       127  QMPE      H15S           24.1702340643      -14.7185494807       -3.2769186672  MEMB      127             0.0000000000
     15832       127  QMPE      C216           23.8962739501      -12.8837076098       -2.1814860427  MEMB      127             0.0000000000
     15833       127  QMPE      H16R           22.9241862605      -13.3023966130       -1.8437488979  MEMB      127             0.0000000000
     15834       127  QMPE      H16S           23.6828282386      -11.7981982107       -2.2836236365  MEMB      127             0.0000000000
     15835       127  QMPE      H16T           24.5289136746      -13.1418576863       -1.3054456198  MEMB      127             0.0000000000
     15836       127  QMPE      C33            16.8087964161      -12.4857709414      -10.5947908071  MEMB      127             0.0000000000
     15837       127  QMPE      H3X            17.0638413351      -13.5590511459      -10.7264827035  MEMB      127             0.0000000000
     15838       127  QMPE      H3Y            15.7629492909      -12.3470808284      -10.9430576027  MEMB      127             0.0000000000
     15839       127  QMPE      C34            16.7604428656      -12.2445819998       -9.1038956599  MEMB      127             0.0000000000
     15840       127  QMPE      H4X            15.7621081901      -12.3556123252       -8.6292162226  MEMB      127             0.0000000000
     15841       127  QMPE      H4Y            17.1078652865      -11.2444438487       -8.7672326657  MEMB      127             0.0000000000
     15842       127  QMPE      C35            17.6302763779      -13.3989785334       -8.3913759839  MEMB      127             0.0000000000
     15843       127  QMPE      H5X            18.5086833092      -13.7316300142       -8.9847272610  MEMB      127             0.0000000000
     15844       127  QMPE      H5Y            16.9335003767      -14.2615655901       -8.4604267767  MEMB      127             0.0000000000
     15845       127  QMPE      C36            18.0888281488      -13.0891856396       -7.0321991159  MEMB      127             0.0000000000
     15846       127  QMPE      H6X            17.3582157722      -12.8345686360       -6.2348930454  MEMB      127             0.0000000000
     15847       127  QMPE      H6Y            18.9249659106      -12.3642180343       -7.1302634508  MEMB      127             0.0000000000
     15848       127  QMPE      C37            18.8299433692      -14.3166606693       -6.4697820486  MEMB      127             0.0000000000
     15849       127  QMPE      H7X            18.0386660511      -14.9661072720       -6.0380177825  MEMB      127             0.0000000000
     15850       127  QMPE      H7Y            19.4002100784      -14.8831882886       -7.2366998195  MEMB      127             0.0000000000
     15851       127  QMPE      C38            19.8580273535      -14.0528756334       -5.3684716166  MEMB      127             0.0000000000
     15852       127  QMPE      H8X            20.6740486145      -13.5393210429       -5.9204604911  MEMB      127             0.0000000000
     15853       127  QMPE      H8Y            19.4284204760      -13.3409217931       -4.6316672463  MEMB      127             0.0000000000
     15854       127  QMPE      C39            20.3491545797      -15.3312692368       -4.6314174460  MEMB      127             0.0000000000
     15855       127  QMPE      H9X            21.1672043543      -15.0887192537       -3.9198803188  MEMB      127             0.0000000000
     15856       127  QMPE      H9Y            20.7984056101      -16.0240088196       -5.3747924425  MEMB      127             0.0000000000
     15857       127  QMPE      C310           19.3659988056      -16.1366127695       -3.7306052166  MEMB      127             0.0000000000
     15858       127  QMPE      H10X           19.8146284176      -17.0980968350       -3.4010580479  MEMB      127             0.0000000000
     15859       127  QMPE      H10Y           18.4425056216      -16.3276279557       -4.3179670681  MEMB      127             0.0000000000
     15860       127  QMPE      C311           18.6817866816      -15.3001137423       -2.5685441836  MEMB      127             0.0000000000
     15861       127  QMPE      H11X           18.0494579861      -15.8292231568       -1.8238804804  MEMB      127             0.0000000000
     15862       127  QMPE      H11Y           18.1510079986      -14.5069361231       -3.1372836092  MEMB      127             0.0000000000
     15863       127  QMPE      C312           19.6722743880      -14.7574401056       -1.4373032690  MEMB      127             0.0000000000
     15864       127  QMPE      H12X           19.2268355010      -13.9019794456       -0.8858580942  MEMB      127             0.0000000000
     15865       127  QMPE      H12Y           20.5131724153      -14.3286033375       -2.0232313677  MEMB      127             0.0000000000
     15866       127  QMPE      C313           20.1260134328      -15.8070210807       -0.3463366910  MEMB      127             0.0000000000
     15867       127  QMPE      H13X           20.3656088607      -16.7453898287       -0.8907430600  MEMB      127             0.0000000000
     15868       127  QMPE      H13Y           21.0726078276      -15.3545400482        0.0190966166  MEMB      127             0.0000000000
     15869       127  QMPE      C314           19.2933491032      -15.8845633028        1.0054107012  MEMB      127             0.0000000000
     15870       127  QMPE      H14X           18.2699527976      -16.2265678665        0.7408090659  MEMB      127             0.0000000000
     15871       127  QMPE      H14Y           19.1600354201      -14.8951937679        1.4929524684  MEMB      127             0.0000000000
     15872       127  QMPE      C315           19.8866502995      -16.8862799323        2.0058130684  MEMB      127             0.0000000000
     15873       127  QMPE      H15X           20.8726203528      -16.6175872444        2.4416879098  MEMB      127             0.0000000000
     15874       127  QMPE      H15Y           19.1064646032      -17.0462717063        2.7804305043  MEMB      127             0.0000000000
     15875       127  QMPE      H15Z           20.1618319473      -17.7802925004        1.4063643881  MEMB      127             0.0000000000
     15876       128  PYPG      C13             5.7821216943      -21.7161801782      -19.3562243414  MEMB      128             0.0000000000
     15877       128  PYPG      H13A            5.8982968516      -22.0358485494      -18.2985682384  MEMB      128             0.0000000000
     15878       128  PYPG      H13B            4.8163628531      -21.1701461697      -19.2972511715  MEMB      128             0.0000000000
     15879       128  PYPG      OC3             5.6529597703      -22.7345648605      -20.2987550615  MEMB      128             0.0000000000
     15880       128  PYPG      HO3             4.8831126046      -23.2814250570      -20.1258982253  MEMB      128             0.0000000000
     15881       128  PYPG      C12             7.0292654678      -20.8401242714      -19.7770126015  MEMB      128             0.0000000000
     15882       128  PYPG      H12A            7.0766833879      -19.9737702443      -19.0770402588  MEMB      128             0.0000000000
     15883       128  PYPG      OC2             6.8484481889      -20.3295070313      -21.0986086198  MEMB      128             0.0000000000
     15884       128  PYPG      HO2             7.7211699914      -19.9270240962      -21.3012930606  MEMB      128             0.0000000000
     15885       128  PYPG      C11             8.3358523416      -21.5375799136      -19.6949781968  MEMB      128             0.0000000000
     15886       128  PYPG      H11A            9.1776883713      -20.8187579964      -19.6004892822  MEMB      128             0.0000000000
     15887       128  PYPG      H11B            8.3756395977      -22.1061076711      -20.6486626481  MEMB      128             0.0000000000
     15888       128  PYPG      P               9.7114285824      -22.8310119100      -17.9313944853  MEMB      128             0.0000000000
     15889       128  PYPG      O13             9.8846195343      -21.6736493279      -17.0114534567  MEMB      128             0.0000000000
     15890       128  PYPG      O14            10.7309353072      -22.9443244468      -19.0318106259  MEMB      128             0.0000000000
     15891       128  PYPG      O11             9.5694193264      -24.1856560190      -17.1388407402  MEMB      128             0.0000000000
     15892       128  PYPG      O12             8.3238365852      -22.5421550420      -18.6609219037  MEMB      128             0.0000000000
     15893       128  PYPG      C1              8.4093329627      -24.9323834002      -17.0772719982  MEMB      128             0.0000000000
     15894       128  PYPG      HA              8.6609339980      -26.0144257170      -17.0630447850  MEMB      128             0.0000000000
     15895       128  PYPG      HB              7.8380318762      -24.9269237072      -18.0301131023  MEMB      128             0.0000000000
     15896       128  PYPG      C2              7.5090413002      -24.6022623388      -15.7490812449  MEMB      128             0.0000000000
     15897       128  PYPG      HS              6.8555049969      -25.5001966990      -15.7186653023  MEMB      128             0.0000000000
     15898       128  PYPG      O21             6.9241614041      -23.3169767911      -15.8365114513  MEMB      128             0.0000000000
     15899       128  PYPG      C21             6.0875759346      -22.9590700572      -14.8405036368  MEMB      128             0.0000000000
     15900       128  PYPG      O22             5.5983761538      -23.7076679841      -13.9944811687  MEMB      128             0.0000000000
     15901       128  PYPG      C22             5.6924085456      -21.4390149053      -14.9533410431  MEMB      128             0.0000000000
     15902       128  PYPG      H2R             5.0604776346      -21.1258877446      -14.0948914675  MEMB      128             0.0000000000
     15903       128  PYPG      H2S             5.0275885928      -21.3871719258      -15.8419622960  MEMB      128             0.0000000000
     15904       128  PYPG      C3              8.4868887356      -24.6843327788      -14.5475107644  MEMB      128             0.0000000000
     15905       128  PYPG      HX              9.0729261596      -25.6152305142      -14.7034275347  MEMB      128             0.0000000000
     15906       128  PYPG      HY              7.8013913851      -24.7385110386      -13.6748828929  MEMB      128             0.0000000000
     15907       128  PYPG      O31             9.3652907414      -23.5472899046      -14.4961448973  MEMB      128             0.0000000000
     15908       128  PYPG      C31            10.5601811772      -23.8061030319      -14.0070855843  MEMB      128             0.0000000000
     15909       128  PYPG      O32            10.9958821881      -24.8892033560      -13.7532540665  MEMB      128             0.0000000000
     15910       128  PYPG      C32            11.1983254513      -22.4993264706      -13.5244034881  MEMB      128             0.0000000000
     15911       128  PYPG      H2X            11.4254148458      -21.7723118291      -14.3332304222  MEMB      128             0.0000000000
     15912       128  PYPG      H2Y            10.4385032530      -21.9749229642      -12.9063482346  MEMB      128             0.0000000000
     15913       128  PYPG      C23             6.8989773839      -20.5240306730      -14.9450386212  MEMB      128             0.0000000000
     15914       128  PYPG      H3R             6.5853800533      -19.5465351127      -15.3698683139  MEMB      128             0.0000000000
     15915       128  PYPG      H3S             7.6883503568      -20.9007248813      -15.6301027416  MEMB      128             0.0000000000
     15916       128  PYPG      C24             7.5302335368      -20.0602117906      -13.5862674674  MEMB      128             0.0000000000
     15917       128  PYPG      H4R             8.3451524909      -19.3290562186      -13.7750518447  MEMB      128             0.0000000000
     15918       128  PYPG      H4S             7.9143414583      -20.9906023719      -13.1159956862  MEMB      128             0.0000000000
     15919       128  PYPG      C25             6.5595108950      -19.3108486991      -12.5829166008  MEMB      128             0.0000000000
     15920       128  PYPG      H5R             5.8135377916      -20.0047488911      -12.1398055750  MEMB      128             0.0000000000
     15921       128  PYPG      H5S             6.0929000621      -18.3981571197      -13.0113903551  MEMB      128             0.0000000000
     15922       128  PYPG      C26             7.1682281975      -18.8607609647      -11.2854226730  MEMB      128             0.0000000000
     15923       128  PYPG      H6R             7.9396794139      -19.5976458243      -10.9752855190  MEMB      128             0.0000000000
     15924       128  PYPG      H6S             6.4041005494      -18.8273894223      -10.4796205151  MEMB      128             0.0000000000
     15925       128  PYPG      C27             7.9076960827      -17.4841753166      -11.3195763816  MEMB      128             0.0000000000
     15926       128  PYPG      H7R             7.1013951112      -16.7355993893      -11.4739586957  MEMB      128             0.0000000000
     15927       128  PYPG      H7S             8.6901044911      -17.4742515121      -12.1082838415  MEMB      128             0.0000000000
     15928       128  PYPG      C28             8.6476976485      -17.0762123595       -9.9561755116  MEMB      128             0.0000000000
     15929       128  PYPG      H8R             8.9746836501      -16.0287552210      -10.1300571236  MEMB      128             0.0000000000
     15930       128  PYPG      H8S             9.4912850639      -17.7543155241       -9.7054618140  MEMB      128             0.0000000000
     15931       128  PYPG      C29             7.7195572938      -17.0642011584       -8.7466827841  MEMB      128             0.0000000000
     15932       128  PYPG      H9R             6.8792117683      -16.3558130430       -8.7914712006  MEMB      128             0.0000000000
     15933       128  PYPG      C210            7.6481686653      -18.0457538847       -7.8875766445  MEMB      128             0.0000000000
     15934       128  PYPG      H10R            7.0144101431      -17.8135262012       -7.0190028225  MEMB      128             0.0000000000
     15935       128  PYPG      C211            8.3296123110      -19.3786496501       -7.7936354780  MEMB      128             0.0000000000
     15936       128  PYPG      H11R            9.3044929603      -19.5179765030       -8.3079473612  MEMB      128             0.0000000000
     15937       128  PYPG      H11S            7.5863140259      -20.1043014515       -8.1876639832  MEMB      128             0.0000000000
     15938       128  PYPG      C212            8.4285263956      -19.8462530923       -6.3230390360  MEMB      128             0.0000000000
     15939       128  PYPG      H12R            8.8326092850      -20.8790268756       -6.3894971070  MEMB      128             0.0000000000
     15940       128  PYPG      H12S            7.3972691775      -19.9362749502       -5.9196471428  MEMB      128             0.0000000000
     15941       128  PYPG      C213            9.1671810757      -18.7998839109       -5.4356064836  MEMB      128             0.0000000000
     15942       128  PYPG      H13R            8.7514158403      -17.8065387981       -5.7089662828  MEMB      128             0.0000000000
     15943       128  PYPG      H13S           10.2270699566      -18.7885642440       -5.7685148063  MEMB      128             0.0000000000
     15944       128  PYPG      C214            8.9410021720      -19.0722832237       -3.9357320625  MEMB      128             0.0000000000
     15945       128  PYPG      H14R            8.9763607174      -20.1679155637       -3.7550097036  MEMB      128             0.0000000000
     15946       128  PYPG      H14S            9.6684040118      -18.5595335102       -3.2706798962  MEMB      128             0.0000000000
     15947       128  PYPG      C215            7.5761669979      -18.5830064772       -3.4337108001  MEMB      128             0.0000000000
     15948       128  PYPG      H15R            6.8073541550      -19.0252750075       -4.1027748468  MEMB      128             0.0000000000
     15949       128  PYPG      H15S            7.4015196802      -17.4888551476       -3.5152706293  MEMB      128             0.0000000000
     15950       128  PYPG      C216            7.4015113417      -18.9790462587       -1.9774397641  MEMB      128             0.0000000000
     15951       128  PYPG      H16R            8.0555386497      -18.2620354829       -1.4366385377  MEMB      128             0.0000000000
     15952       128  PYPG      H16S            7.5599631532      -20.0596268551       -1.7735778406  MEMB      128             0.0000000000
     15953       128  PYPG      H16T            6.3247870361      -18.8074950116       -1.7640016340  MEMB      128             0.0000000000
     15954       128  PYPG      C33            12.4318227181      -22.6502256124      -12.6480397653  MEMB      128             0.0000000000
     15955       128  PYPG      H3X            13.1231422475      -23.3638939803      -13.1451065647  MEMB      128             0.0000000000
     15956       128  PYPG      H3Y            12.0403413073      -23.2952951854      -11.8325959069  MEMB      128             0.0000000000
     15957       128  PYPG      C34            12.9812960829      -21.2811428568      -12.3866394866  MEMB      128             0.0000000000
     15958       128  PYPG      H4X            12.8505110693      -20.6139518605      -13.2653159047  MEMB      128             0.0000000000
     15959       128  PYPG      H4Y            14.0164306336      -21.5085106836      -12.0532912937  MEMB      128             0.0000000000
     15960       128  PYPG      C35            12.3973420414      -20.5554369538      -11.1215161164  MEMB      128             0.0000000000
     15961       128  PYPG      H5X            11.4511817110      -20.0024367482      -11.3039796312  MEMB      128             0.0000000000
     15962       128  PYPG      H5Y            13.2000511779      -19.8052194825      -10.9567359505  MEMB      128             0.0000000000
     15963       128  PYPG      C36            12.2609292272      -21.3352020125       -9.8405586633  MEMB      128             0.0000000000
     15964       128  PYPG      H6X            13.0248121876      -22.1388195664       -9.9112892893  MEMB      128             0.0000000000
     15965       128  PYPG      H6Y            11.2226914660      -21.7306166319       -9.8461177696  MEMB      128             0.0000000000
     15966       128  PYPG      C37            12.7107655789      -20.5041707160       -8.5592963400  MEMB      128             0.0000000000
     15967       128  PYPG      H7X            13.6881368479      -20.1186246116       -8.9204344965  MEMB      128             0.0000000000
     15968       128  PYPG      H7Y            11.9783761953      -19.6708151373       -8.5006039909  MEMB      128             0.0000000000
     15969       128  PYPG      C38            12.7501517782      -21.0881554301       -7.1339844522  MEMB      128             0.0000000000
     15970       128  PYPG      H8X            12.6780173375      -20.2837790658       -6.3710316509  MEMB      128             0.0000000000
     15971       128  PYPG      H8Y            13.6769900941      -21.6439717330       -6.8763798768  MEMB      128             0.0000000000
     15972       128  PYPG      C39            11.5901055764      -22.0664395454       -6.8310983408  MEMB      128             0.0000000000
     15973       128  PYPG      H9X            11.7092016716      -22.9295104361       -7.5204792665  MEMB      128             0.0000000000
     15974       128  PYPG      H9Y            10.6612454768      -21.5433469919       -7.1440110535  MEMB      128             0.0000000000
     15975       128  PYPG      C310           11.5375088982      -22.7509901931       -5.4411658379  MEMB      128             0.0000000000
     15976       128  PYPG      H10X           12.4466083003      -23.3803421964       -5.3326535837  MEMB      128             0.0000000000
     15977       128  PYPG      H10Y           10.6209843607      -23.3723207105       -5.3503255367  MEMB      128             0.0000000000
     15978       128  PYPG      C311           11.3904468609      -21.7381692091       -4.2537802529  MEMB      128             0.0000000000
     15979       128  PYPG      H11X           10.5233770633      -21.0524943245       -4.3649599019  MEMB      128             0.0000000000
     15980       128  PYPG      H11Y           12.3025357153      -21.1334006253       -4.0622870488  MEMB      128             0.0000000000
     15981       128  PYPG      C312           11.1539835234      -22.4565939847       -2.9317257185  MEMB      128             0.0000000000
     15982       128  PYPG      H12X           10.2771224520      -23.1207723187       -3.0876189651  MEMB      128             0.0000000000
     15983       128  PYPG      H12Y           12.0553296286      -23.0830175563       -2.7600013045  MEMB      128             0.0000000000
     15984       128  PYPG      C313           10.7578728451      -21.6112985248       -1.7496444653  MEMB      128             0.0000000000
     15985       128  PYPG      H13X           11.7011373192      -21.1962403801       -1.3345542892  MEMB      128             0.0000000000
     15986       128  PYPG      H13Y           10.1649698087      -20.7667514514       -2.1613811969  MEMB      128             0.0000000000
     15987       128  PYPG      C314            9.8385906765      -22.2926075491       -0.7428253666  MEMB      128             0.0000000000
     15988       128  PYPG      H14X            9.4842587565      -21.5480907190        0.0017980940  MEMB      128             0.0000000000
     15989       128  PYPG      H14Y            8.9570155395      -22.7677714874       -1.2238305482  MEMB      128             0.0000000000
     15990       128  PYPG      C315           10.5047450248      -23.4124839464        0.1043606828  MEMB      128             0.0000000000
     15991       128  PYPG      H15X            9.6861447582      -23.7929815594        0.7519980682  MEMB      128             0.0000000000
     15992       128  PYPG      H15Y           10.7817950518      -24.2450868282       -0.5770629399  MEMB      128             0.0000000000
     15993       128  PYPG      C316           11.7665698296      -23.0558908174        0.7666030954  MEMB      128             0.0000000000
     15994       128  PYPG      H16X           11.9315615147      -23.6380067252        1.6983968642  MEMB      128             0.0000000000
     15995       128  PYPG      H16Y           11.9188296465      -21.9863385748        1.0258241307  MEMB      128             0.0000000000
     15996       128  PYPG      H16Z           12.5472634401      -23.3604508515        0.0371630522  MEMB      128             0.0000000000
     15997       129  PYPG      C13           -16.7853513432      -17.5079022856      -19.2707810912  MEMB      129             0.0000000000
     15998       129  PYPG      H13A          -16.1023400081      -16.7909912353      -19.7746212510  MEMB      129             0.0000000000
     15999       129  PYPG      H13B          -17.8307922389      -17.2871336297      -19.5751424485  MEMB      129             0.0000000000
     16000       129  PYPG      OC3           -16.8881366958      -17.1486835962      -17.9228764857  MEMB      129             0.0000000000
     16001       129  PYPG      HO3           -15.9947233590      -17.2339563567      -17.5820812745  MEMB      129             0.0000000000
     16002       129  PYPG      C12           -16.3802332471      -18.9456641149      -19.5302185756  MEMB      129             0.0000000000
     16003       129  PYPG      H12A          -16.0890660887      -19.0190831189      -20.6038155091  MEMB      129             0.0000000000
     16004       129  PYPG      OC2           -17.4915485879      -19.8165635807      -19.3144566148  MEMB      129             0.0000000000
     16005       129  PYPG      HO2           -17.0873465242      -20.7096922555      -19.3749438194  MEMB      129             0.0000000000
     16006       129  PYPG      C11           -15.1527899198      -19.5214691199      -18.7146940283  MEMB      129             0.0000000000
     16007       129  PYPG      H11A          -15.0069098861      -20.5720999184      -19.0451708085  MEMB      129             0.0000000000
     16008       129  PYPG      H11B          -15.3234888498      -19.6499695780      -17.6244322544  MEMB      129             0.0000000000
     16009       129  PYPG      P             -12.5215284620      -19.2725762054      -19.1006380097  MEMB      129             0.0000000000
     16010       129  PYPG      O13           -11.5842747269      -18.1010429631      -18.8818428787  MEMB      129             0.0000000000
     16011       129  PYPG      O14           -12.2972676125      -20.0512356063      -20.3484330878  MEMB      129             0.0000000000
     16012       129  PYPG      O11           -12.4781444111      -20.3123792993      -17.8755559723  MEMB      129             0.0000000000
     16013       129  PYPG      O12           -14.0270389971      -18.7451912249      -19.0405032566  MEMB      129             0.0000000000
     16014       129  PYPG      C1            -12.3368649375      -19.9291886917      -16.4819978443  MEMB      129             0.0000000000
     16015       129  PYPG      HA            -12.7641673537      -18.9254304928      -16.2717523127  MEMB      129             0.0000000000
     16016       129  PYPG      HB            -11.2533463797      -19.8751305575      -16.2424441056  MEMB      129             0.0000000000
     16017       129  PYPG      C2            -12.9566409630      -21.0363010275      -15.6247539073  MEMB      129             0.0000000000
     16018       129  PYPG      HS            -12.5472621691      -22.0304279288      -15.9048282740  MEMB      129             0.0000000000
     16019       129  PYPG      O21           -14.3479609446      -21.0593506447      -15.9119952147  MEMB      129             0.0000000000
     16020       129  PYPG      C21           -15.0997742133      -22.2208411616      -15.7216121139  MEMB      129             0.0000000000
     16021       129  PYPG      O22           -14.6385336366      -23.3336647637      -15.5520546370  MEMB      129             0.0000000000
     16022       129  PYPG      C22           -16.5430238606      -21.8265712330      -16.0048646539  MEMB      129             0.0000000000
     16023       129  PYPG      H2R           -16.6280012215      -21.9122544179      -17.1092911244  MEMB      129             0.0000000000
     16024       129  PYPG      H2S           -16.6965288388      -20.7406036125      -15.8275750347  MEMB      129             0.0000000000
     16025       129  PYPG      C3            -12.7239352794      -20.7717470250      -14.1728896130  MEMB      129             0.0000000000
     16026       129  PYPG      HX            -11.6411104768      -20.5289629073      -14.1193388713  MEMB      129             0.0000000000
     16027       129  PYPG      HY            -12.9930199764      -21.7217297572      -13.6635297032  MEMB      129             0.0000000000
     16028       129  PYPG      O31           -13.5548149551      -19.8542393100      -13.4775505626  MEMB      129             0.0000000000
     16029       129  PYPG      C31           -12.9608576706      -18.9124630252      -12.6735972489  MEMB      129             0.0000000000
     16030       129  PYPG      O32           -11.7333842053      -18.7841132036      -12.6314555866  MEMB      129             0.0000000000
     16031       129  PYPG      C32           -13.9160190076      -18.1828958372      -11.8303276940  MEMB      129             0.0000000000
     16032       129  PYPG      H2X           -14.5465374424      -18.8993543504      -11.2615970482  MEMB      129             0.0000000000
     16033       129  PYPG      H2Y           -13.4900689525      -17.5795022810      -11.0003856164  MEMB      129             0.0000000000
     16034       129  PYPG      C23           -17.6369241070      -22.5717224124      -15.2499030815  MEMB      129             0.0000000000
     16035       129  PYPG      H3R           -17.8959774197      -23.5432519712      -15.7224940168  MEMB      129             0.0000000000
     16036       129  PYPG      H3S           -18.5435536134      -21.9752268374      -15.4876776846  MEMB      129             0.0000000000
     16037       129  PYPG      C24           -17.3851555676      -22.8288542801      -13.7976781642  MEMB      129             0.0000000000
     16038       129  PYPG      H4R           -16.8061077526      -23.7744798589      -13.7282751256  MEMB      129             0.0000000000
     16039       129  PYPG      H4S           -18.3370557721      -23.0264193517      -13.2599280159  MEMB      129             0.0000000000
     16040       129  PYPG      C25           -16.5964671335      -21.7419508041      -12.9731814584  MEMB      129             0.0000000000
     16041       129  PYPG      H5R           -17.0816978598      -20.7525626518      -13.1145436220  MEMB      129             0.0000000000
     16042       129  PYPG      H5S           -15.5328429567      -21.7253104097      -13.2937242239  MEMB      129             0.0000000000
     16043       129  PYPG      C26           -16.4318018931      -22.1869855034      -11.4816846971  MEMB      129             0.0000000000
     16044       129  PYPG      H6R           -16.1001400095      -21.2448110579      -10.9952399940  MEMB      129             0.0000000000
     16045       129  PYPG      H6S           -15.6896939930      -23.0137636128      -11.4757867590  MEMB      129             0.0000000000
     16046       129  PYPG      C27           -17.6250126454      -22.5937157191      -10.6292715028  MEMB      129             0.0000000000
     16047       129  PYPG      H7R           -17.2925304731      -22.8866328492       -9.6104606810  MEMB      129             0.0000000000
     16048       129  PYPG      H7S           -18.0472723377      -23.5270205401      -11.0593410292  MEMB      129             0.0000000000
     16049       129  PYPG      C28           -18.5930481805      -21.4125374310      -10.4677135033  MEMB      129             0.0000000000
     16050       129  PYPG      H8R           -18.7787701378      -21.1471197348      -11.5304369456  MEMB      129             0.0000000000
     16051       129  PYPG      H8S           -18.0542188206      -20.5135446928      -10.0992085059  MEMB      129             0.0000000000
     16052       129  PYPG      C29           -19.8522036345      -21.7559631739       -9.8138825981  MEMB      129             0.0000000000
     16053       129  PYPG      H9R           -20.5284856857      -22.3881850654      -10.4079687322  MEMB      129             0.0000000000
     16054       129  PYPG      C210          -20.2543652027      -21.3714681828       -8.6150197626  MEMB      129             0.0000000000
     16055       129  PYPG      H10R          -21.2020473203      -21.7667283393       -8.2204728584  MEMB      129             0.0000000000
     16056       129  PYPG      C211          -19.4348474083      -20.5734356839       -7.6185895874  MEMB      129             0.0000000000
     16057       129  PYPG      H11R          -20.0808578502      -19.6760713119       -7.5102907521  MEMB      129             0.0000000000
     16058       129  PYPG      H11S          -18.3747155571      -20.3079066399       -7.8184279613  MEMB      129             0.0000000000
     16059       129  PYPG      C212          -19.4011923670      -21.2962975359       -6.2957786723  MEMB      129             0.0000000000
     16060       129  PYPG      H12R          -19.3664786300      -22.4002404282       -6.4158875591  MEMB      129             0.0000000000
     16061       129  PYPG      H12S          -20.3874292270      -21.0475031624       -5.8488335594  MEMB      129             0.0000000000
     16062       129  PYPG      C213          -18.2932714946      -20.8936904387       -5.1757778260  MEMB      129             0.0000000000
     16063       129  PYPG      H13R          -18.5371983709      -21.5239410880       -4.2939582954  MEMB      129             0.0000000000
     16064       129  PYPG      H13S          -18.3332797422      -19.7983891189       -4.9940216168  MEMB      129             0.0000000000
     16065       129  PYPG      C214          -16.7527943198      -21.1561325551       -5.5023369221  MEMB      129             0.0000000000
     16066       129  PYPG      H14R          -16.6029602313      -22.1963955694       -5.8625086391  MEMB      129             0.0000000000
     16067       129  PYPG      H14S          -16.5327067273      -20.5687323149       -6.4193118831  MEMB      129             0.0000000000
     16068       129  PYPG      C215          -15.6925155421      -20.7825438991       -4.3668235528  MEMB      129             0.0000000000
     16069       129  PYPG      H15R          -15.9600669192      -19.7319514514       -4.1239390634  MEMB      129             0.0000000000
     16070       129  PYPG      H15S          -14.6340931773      -20.7281075350       -4.7001407354  MEMB      129             0.0000000000
     16071       129  PYPG      C216          -15.8186233245      -21.6764491706       -3.1225664979  MEMB      129             0.0000000000
     16072       129  PYPG      H16R          -15.3843618912      -21.3307120956       -2.1601717348  MEMB      129             0.0000000000
     16073       129  PYPG      H16S          -15.4035205720      -22.6866044555       -3.3265191355  MEMB      129             0.0000000000
     16074       129  PYPG      H16T          -16.8659360067      -21.9927162836       -2.9290916001  MEMB      129             0.0000000000
     16075       129  PYPG      C33           -14.7849054659      -17.3492051905      -12.7813814296  MEMB      129             0.0000000000
     16076       129  PYPG      H3X           -15.2040396463      -18.0035375229      -13.5754198988  MEMB      129             0.0000000000
     16077       129  PYPG      H3Y           -14.0462898907      -16.6556720362      -13.2372105012  MEMB      129             0.0000000000
     16078       129  PYPG      C34           -16.0383470393      -16.7147765045      -12.1435687573  MEMB      129             0.0000000000
     16079       129  PYPG      H4X           -16.6083745933      -15.9985508705      -12.7731797728  MEMB      129             0.0000000000
     16080       129  PYPG      H4Y           -15.6337705241      -16.1754273400      -11.2605385544  MEMB      129             0.0000000000
     16081       129  PYPG      C35           -17.0775395506      -17.7775052998      -11.7687530857  MEMB      129             0.0000000000
     16082       129  PYPG      H5X           -16.5735969744      -18.7402713689      -11.5375728121  MEMB      129             0.0000000000
     16083       129  PYPG      H5Y           -17.7856431402      -17.9177561942      -12.6132886789  MEMB      129             0.0000000000
     16084       129  PYPG      C36           -17.7574306573      -17.4947383519      -10.4672789744  MEMB      129             0.0000000000
     16085       129  PYPG      H6X           -18.7256547169      -18.0395624604      -10.4618123177  MEMB      129             0.0000000000
     16086       129  PYPG      H6Y           -17.8973424086      -16.3926594484      -10.4802197623  MEMB      129             0.0000000000
     16087       129  PYPG      C37           -16.9736994353      -17.7469866321       -9.1755054554  MEMB      129             0.0000000000
     16088       129  PYPG      H7X           -16.9349910501      -18.8319383416       -8.9394908126  MEMB      129             0.0000000000
     16089       129  PYPG      H7Y           -15.9079939014      -17.4466486967       -9.2670976531  MEMB      129             0.0000000000
     16090       129  PYPG      C38           -17.7064848013      -17.1080583212       -8.0880145502  MEMB      129             0.0000000000
     16091       129  PYPG      H8X           -18.7076175616      -17.5821145270       -8.0024313168  MEMB      129             0.0000000000
     16092       129  PYPG      H8Y           -17.7817536610      -16.0099198251       -8.2388374428  MEMB      129             0.0000000000
     16093       129  PYPG      C39           -17.0538479150      -17.2803583916       -6.7468147080  MEMB      129             0.0000000000
     16094       129  PYPG      H9X           -17.0443991102      -18.3172384369       -6.3479268080  MEMB      129             0.0000000000
     16095       129  PYPG      H9Y           -17.6442409265      -16.6988766563       -6.0067907561  MEMB      129             0.0000000000
     16096       129  PYPG      C310          -15.6632627195      -16.7118048208       -6.5878442180  MEMB      129             0.0000000000
     16097       129  PYPG      H10X          -15.7764315499      -15.6443013130       -6.8741128909  MEMB      129             0.0000000000
     16098       129  PYPG      H10Y          -14.9540196679      -17.1483880116       -7.3231610331  MEMB      129             0.0000000000
     16099       129  PYPG      C311          -15.0766557030      -16.7098920332       -5.1222827780  MEMB      129             0.0000000000
     16100       129  PYPG      H11X          -14.0938030766      -16.2004818354       -5.0283522246  MEMB      129             0.0000000000
     16101       129  PYPG      H11Y          -14.9056368790      -17.7795241439       -4.8753807895  MEMB      129             0.0000000000
     16102       129  PYPG      C312          -16.1004503433      -16.1910484541       -4.0748679921  MEMB      129             0.0000000000
     16103       129  PYPG      H12X          -16.6986970656      -15.3656949609       -4.5166972592  MEMB      129             0.0000000000
     16104       129  PYPG      H12Y          -16.7476536361      -17.0312812141       -3.7440241061  MEMB      129             0.0000000000
     16105       129  PYPG      C313          -15.4221726227      -15.6538712545       -2.7960732328  MEMB      129             0.0000000000
     16106       129  PYPG      H13X          -14.7056332497      -14.8889392966       -3.1645460464  MEMB      129             0.0000000000
     16107       129  PYPG      H13Y          -16.1040802173      -14.9982661700       -2.2134029678  MEMB      129             0.0000000000
     16108       129  PYPG      C314          -14.6621915702      -16.6837881017       -1.9794935164  MEMB      129             0.0000000000
     16109       129  PYPG      H14X          -14.1437113270      -17.3217306742       -2.7268425513  MEMB      129             0.0000000000
     16110       129  PYPG      H14Y          -13.8343030568      -16.1314642789       -1.4856718998  MEMB      129             0.0000000000
     16111       129  PYPG      C315          -15.4957781213      -17.6404589046       -1.0375552216  MEMB      129             0.0000000000
     16112       129  PYPG      H15X          -16.2127907252      -18.2936786371       -1.5793278382  MEMB      129             0.0000000000
     16113       129  PYPG      H15Y          -14.8666849618      -18.2102679128       -0.3207000577  MEMB      129             0.0000000000
     16114       129  PYPG      C316          -16.3684811378      -16.8668632255        0.0479942891  MEMB      129             0.0000000000
     16115       129  PYPG      H16X          -17.0122461535      -16.0627220756       -0.3682328835  MEMB      129             0.0000000000
     16116       129  PYPG      H16Y          -15.7152173026      -16.5247164006        0.8789589615  MEMB      129             0.0000000000
     16117       129  PYPG      H16Z          -17.1033291213      -17.5853119074        0.4700740624  MEMB      129             0.0000000000
     16118       130  PMPE      N               0.3194542234      -26.7332751900      -19.7164660817  MEMB      130             0.0000000000
     16119       130  PMPE      HN1             0.7017366964      -26.3828804206      -18.8149764351  MEMB      130             0.0000000000
     16120       130  PMPE      HN2             0.3704413156      -27.7720195222      -19.7132205981  MEMB      130             0.0000000000
     16121       130  PMPE      HN3             0.9459979160      -26.4968060619      -20.5121578024  MEMB      130             0.0000000000
     16122       130  PMPE      C12            -1.0494923611      -26.2564607013      -19.8421058549  MEMB      130             0.0000000000
     16123       130  PMPE      H12A           -1.6792907524      -26.6509378323      -19.0162349953  MEMB      130             0.0000000000
     16124       130  PMPE      H12B           -1.4532421484      -26.6409334287      -20.8030886068  MEMB      130             0.0000000000
     16125       130  PMPE      C11            -1.3186462554      -24.7252946749      -19.8447603067  MEMB      130             0.0000000000
     16126       130  PMPE      H11A           -2.3831518329      -24.4383830393      -19.9819853308  MEMB      130             0.0000000000
     16127       130  PMPE      H11B           -0.7460230134      -24.2712135215      -20.6815601361  MEMB      130             0.0000000000
     16128       130  PMPE      P              -0.5199043840      -22.6692163370      -18.5887656365  MEMB      130             0.0000000000
     16129       130  PMPE      O13            -1.4931572540      -22.0616922798      -17.5896303782  MEMB      130             0.0000000000
     16130       130  PMPE      O14            -0.4118420496      -22.0238252532      -19.9839262365  MEMB      130             0.0000000000
     16131       130  PMPE      O11             0.8499902891      -22.4568683046      -17.8021985034  MEMB      130             0.0000000000
     16132       130  PMPE      O12            -0.7868074872      -24.2448160596      -18.6321470187  MEMB      130             0.0000000000
     16133       130  PMPE      C1              2.0074505921      -23.0812384870      -18.2391447548  MEMB      130             0.0000000000
     16134       130  PMPE      HA              2.3580381217      -22.6838089718      -19.2155970764  MEMB      130             0.0000000000
     16135       130  PMPE      HB              1.7764434714      -24.1427840416      -18.4716909113  MEMB      130             0.0000000000
     16136       130  PMPE      C2              3.1157069609      -22.9508762954      -17.2009906039  MEMB      130             0.0000000000
     16137       130  PMPE      HS              4.0531138640      -23.5058363305      -17.4191851412  MEMB      130             0.0000000000
     16138       130  PMPE      O21             2.6731425515      -23.3292268614      -15.8411617489  MEMB      130             0.0000000000
     16139       130  PMPE      C21             2.2266001496      -24.5278861877      -15.6328943668  MEMB      130             0.0000000000
     16140       130  PMPE      O22             2.3137080311      -25.4748457666      -16.3984474523  MEMB      130             0.0000000000
     16141       130  PMPE      C22             1.5877893494      -24.6362963938      -14.1945943100  MEMB      130             0.0000000000
     16142       130  PMPE      H2R             0.4873930855      -24.7268408538      -14.3180874701  MEMB      130             0.0000000000
     16143       130  PMPE      H2S             1.8973492824      -23.7486503050      -13.6024977752  MEMB      130             0.0000000000
     16144       130  PMPE      C3              3.6608076877      -21.4519292310      -17.0623338078  MEMB      130             0.0000000000
     16145       130  PMPE      HX              4.1410542653      -21.1379627288      -18.0137062476  MEMB      130             0.0000000000
     16146       130  PMPE      HY              4.5300969000      -21.4704143226      -16.3707301970  MEMB      130             0.0000000000
     16147       130  PMPE      O31             2.6116781609      -20.6106896697      -16.7408352538  MEMB      130             0.0000000000
     16148       130  PMPE      C31             2.4146659183      -20.3885235548      -15.4218280226  MEMB      130             0.0000000000
     16149       130  PMPE      O32             3.2204854625      -20.6582004772      -14.5084397025  MEMB      130             0.0000000000
     16150       130  PMPE      C32             1.1227425854      -19.6690520432      -15.2539517937  MEMB      130             0.0000000000
     16151       130  PMPE      H2X             0.5877085389      -19.6238991049      -16.2265877349  MEMB      130             0.0000000000
     16152       130  PMPE      H2Y             1.1656301340      -18.5923834191      -14.9832741457  MEMB      130             0.0000000000
     16153       130  PMPE      C23             2.1626826482      -25.8444897570      -13.4736994855  MEMB      130             0.0000000000
     16154       130  PMPE      H3R             3.2551804186      -25.6619977744      -13.5601109042  MEMB      130             0.0000000000
     16155       130  PMPE      H3S             1.9142870246      -26.7437457689      -14.0769900871  MEMB      130             0.0000000000
     16156       130  PMPE      C24             1.8876381416      -25.9097321521      -11.9563590142  MEMB      130             0.0000000000
     16157       130  PMPE      H4R             2.6792549130      -25.3539837247      -11.4097264725  MEMB      130             0.0000000000
     16158       130  PMPE      H4S             2.0150674473      -26.9779879380      -11.6790285720  MEMB      130             0.0000000000
     16159       130  PMPE      C25             0.5412149347      -25.5515472108      -11.4469696376  MEMB      130             0.0000000000
     16160       130  PMPE      H5R            -0.2911135016      -26.1756751797      -11.8368602369  MEMB      130             0.0000000000
     16161       130  PMPE      H5S             0.3827914596      -24.4739502965      -11.6660771314  MEMB      130             0.0000000000
     16162       130  PMPE      C26             0.4863037985      -25.6833113143       -9.8977784198  MEMB      130             0.0000000000
     16163       130  PMPE      H6R            -0.5468695308      -25.4464963686       -9.5649237125  MEMB      130             0.0000000000
     16164       130  PMPE      H6S             1.3373535257      -25.1374799773       -9.4372313170  MEMB      130             0.0000000000
     16165       130  PMPE      C27             0.6687840143      -27.1968515616       -9.5192472189  MEMB      130             0.0000000000
     16166       130  PMPE      H7R             1.7547051312      -27.4131936336       -9.4281846299  MEMB      130             0.0000000000
     16167       130  PMPE      H7S             0.1910805169      -27.9561260034      -10.1747029845  MEMB      130             0.0000000000
     16168       130  PMPE      C28             0.0748675211      -27.7365422477       -8.1567953795  MEMB      130             0.0000000000
     16169       130  PMPE      H8R             0.5325348813      -27.1681222475       -7.3190833196  MEMB      130             0.0000000000
     16170       130  PMPE      H8S             0.5412117171      -28.7448104097       -8.1722610195  MEMB      130             0.0000000000
     16171       130  PMPE      C29            -1.4510122778      -27.8039302164       -8.2195672985  MEMB      130             0.0000000000
     16172       130  PMPE      H9R            -1.9477292516      -28.2248505437       -9.1198008634  MEMB      130             0.0000000000
     16173       130  PMPE      C217           -2.2345146366      -26.5955995194       -7.7224037940  MEMB      130             0.0000000000
     16174       130  PMPE      H17R           -3.1417117458      -26.4722828466       -8.3009157771  MEMB      130             0.0000000000
     16175       130  PMPE      H17S           -1.5173134331      -25.8419982746       -7.4214113501  MEMB      130             0.0000000000
     16176       130  PMPE      C210           -2.1999744758      -27.8505546642       -6.8791305289  MEMB      130             0.0000000000
     16177       130  PMPE      H10R           -3.0568525715      -28.5532492937       -6.9585087334  MEMB      130             0.0000000000
     16178       130  PMPE      C211           -1.5504113632      -27.5731348747       -5.4730923657  MEMB      130             0.0000000000
     16179       130  PMPE      H11R           -2.1508869828      -27.0134236094       -4.7244443728  MEMB      130             0.0000000000
     16180       130  PMPE      H11S           -0.6614109606      -26.9135866140       -5.5679373605  MEMB      130             0.0000000000
     16181       130  PMPE      C212           -1.0731812717      -28.8910114333       -4.9061675817  MEMB      130             0.0000000000
     16182       130  PMPE      H12R           -0.4160787941      -29.4077325537       -5.6379706026  MEMB      130             0.0000000000
     16183       130  PMPE      H12S           -2.0036219654      -29.4967484005       -4.9472032857  MEMB      130             0.0000000000
     16184       130  PMPE      C213           -0.3119198362      -28.7837536794       -3.5393706185  MEMB      130             0.0000000000
     16185       130  PMPE      H13R           -0.1466621224      -29.8067976156       -3.1388802211  MEMB      130             0.0000000000
     16186       130  PMPE      H13S           -0.9157106811      -28.1559704951       -2.8496993747  MEMB      130             0.0000000000
     16187       130  PMPE      C214            1.0784150075      -28.0633417671       -3.7255840240  MEMB      130             0.0000000000
     16188       130  PMPE      H14R            0.9627463004      -27.0705223697       -4.2106109709  MEMB      130             0.0000000000
     16189       130  PMPE      H14S            1.7917713704      -28.6341355513       -4.3577531545  MEMB      130             0.0000000000
     16190       130  PMPE      C215            1.7109030220      -27.9687488132       -2.3087792150  MEMB      130             0.0000000000
     16191       130  PMPE      H15R            2.7418122066      -27.5861653750       -2.4674532173  MEMB      130             0.0000000000
     16192       130  PMPE      H15S            1.7437206615      -29.0086092831       -1.9189915540  MEMB      130             0.0000000000
     16193       130  PMPE      C216            1.0416956733      -27.0117197122       -1.3449232330  MEMB      130             0.0000000000
     16194       130  PMPE      H16R            0.9596909203      -25.9777277777       -1.7429917489  MEMB      130             0.0000000000
     16195       130  PMPE      H16S            0.0697735364      -27.3665428597       -0.9402167406  MEMB      130             0.0000000000
     16196       130  PMPE      H16T            1.7189828991      -26.8075822362       -0.4882255017  MEMB      130             0.0000000000
     16197       130  PMPE      C33             0.2692864824      -20.5718148687      -14.4610732520  MEMB      130             0.0000000000
     16198       130  PMPE      H3X             0.7515368694      -21.0224250459      -13.5673699200  MEMB      130             0.0000000000
     16199       130  PMPE      H3Y             0.0741299997      -21.5152925078      -15.0143227361  MEMB      130             0.0000000000
     16200       130  PMPE      C34            -1.1452942567      -20.0176391786      -14.1193199490  MEMB      130             0.0000000000
     16201       130  PMPE      H4X            -1.6530599430      -19.6661941433      -15.0428898949  MEMB      130             0.0000000000
     16202       130  PMPE      H4Y            -0.9898166732      -19.1923922330      -13.3919171489  MEMB      130             0.0000000000
     16203       130  PMPE      C35            -2.0889138072      -21.1037349193      -13.4417142596  MEMB      130             0.0000000000
     16204       130  PMPE      H5X            -2.5385031860      -21.7120375337      -14.2554453499  MEMB      130             0.0000000000
     16205       130  PMPE      H5Y            -2.9682497302      -20.5234893221      -13.0890042871  MEMB      130             0.0000000000
     16206       130  PMPE      C36            -1.5202051301      -22.0310817937      -12.3990247481  MEMB      130             0.0000000000
     16207       130  PMPE      H6X            -0.6681542938      -22.6566482444      -12.7410723822  MEMB      130             0.0000000000
     16208       130  PMPE      H6Y            -2.4153946770      -22.6484596497      -12.1714259529  MEMB      130             0.0000000000
     16209       130  PMPE      C37            -1.2235628294      -21.2868647076      -11.0629101179  MEMB      130             0.0000000000
     16210       130  PMPE      H7X            -2.2263035552      -20.8311410353      -10.9174864903  MEMB      130             0.0000000000
     16211       130  PMPE      H7Y            -0.4758347032      -20.4724230883      -11.1720367483  MEMB      130             0.0000000000
     16212       130  PMPE      C38            -1.0464559212      -22.1732729031       -9.9020875083  MEMB      130             0.0000000000
     16213       130  PMPE      H8X            -0.0950802834      -22.7429531274       -9.9704228555  MEMB      130             0.0000000000
     16214       130  PMPE      H8Y            -1.8783079102      -22.9080987331       -9.8533636636  MEMB      130             0.0000000000
     16215       130  PMPE      C39            -0.8514421872      -21.4298321407       -8.5933707347  MEMB      130             0.0000000000
     16216       130  PMPE      H9X            -1.6027079913      -20.6121589706       -8.5568843658  MEMB      130             0.0000000000
     16217       130  PMPE      H9Y             0.1212661264      -20.9138072666       -8.7412824389  MEMB      130             0.0000000000
     16218       130  PMPE      C310           -0.6650017455      -22.3368645518       -7.3146352335  MEMB      130             0.0000000000
     16219       130  PMPE      H10X            0.0376805924      -23.1516747460       -7.5914802461  MEMB      130             0.0000000000
     16220       130  PMPE      H10Y           -1.6181528838      -22.7901687715       -6.9677343623  MEMB      130             0.0000000000
     16221       130  PMPE      C311           -0.1106872377      -21.6616818735       -6.0921808723  MEMB      130             0.0000000000
     16222       130  PMPE      H11X           -0.8669570378      -21.0311441785       -5.5775942886  MEMB      130             0.0000000000
     16223       130  PMPE      H11Y            0.6557908834      -20.9346040774       -6.4359681926  MEMB      130             0.0000000000
     16224       130  PMPE      C312            0.6147084235      -22.5497012167       -5.1019728388  MEMB      130             0.0000000000
     16225       130  PMPE      H12X            0.8992683092      -21.9198325809       -4.2321381755  MEMB      130             0.0000000000
     16226       130  PMPE      H12Y            1.5564127131      -22.8345570684       -5.6180850860  MEMB      130             0.0000000000
     16227       130  PMPE      C313            0.0216010296      -23.8848035808       -4.6582309483  MEMB      130             0.0000000000
     16228       130  PMPE      H13X            0.5281012718      -24.5355898470       -3.9137474139  MEMB      130             0.0000000000
     16229       130  PMPE      H13Y            0.0305488491      -24.5271961841       -5.5646375995  MEMB      130             0.0000000000
     16230       130  PMPE      C314           -1.4495368766      -23.7923482082       -4.2014390792  MEMB      130             0.0000000000
     16231       130  PMPE      H14X           -1.7798301076      -24.8342103705       -4.0020637912  MEMB      130             0.0000000000
     16232       130  PMPE      H14Y           -2.0380609145      -23.3306166310       -5.0228794107  MEMB      130             0.0000000000
     16233       130  PMPE      C315           -1.6633114510      -22.9699231263       -2.8877262024  MEMB      130             0.0000000000
     16234       130  PMPE      H15X           -2.6892997603      -23.1404561989       -2.4971024168  MEMB      130             0.0000000000
     16235       130  PMPE      H15Y           -1.7022257989      -21.9085444875       -3.2137352250  MEMB      130             0.0000000000
     16236       130  PMPE      C316           -0.6646550806      -23.2961473431       -1.8640479005  MEMB      130             0.0000000000
     16237       130  PMPE      H16X           -0.7985121605      -22.6684182221       -0.9572071265  MEMB      130             0.0000000000
     16238       130  PMPE      H16Y            0.4312497661      -23.2598355937       -2.0429191831  MEMB      130             0.0000000000
     16239       130  PMPE      H16Z           -0.8677276481      -24.3730648286       -1.6814810016  MEMB      130             0.0000000000
     16240       131  QMPE      N             -16.4643795449       19.8564779453      -21.4383374467  MEMB      131             0.0000000000
     16241       131  QMPE      HN1           -17.0747759618       19.9134278579      -22.2784401857  MEMB      131             0.0000000000
     16242       131  QMPE      HN2           -17.0775257332       20.2226522422      -20.6823161188  MEMB      131             0.0000000000
     16243       131  QMPE      HN3           -15.5890603361       20.4083832713      -21.5423411132  MEMB      131             0.0000000000
     16244       131  QMPE      C12           -16.2594392172       18.4579199770      -21.0171113480  MEMB      131             0.0000000000
     16245       131  QMPE      H12A          -15.2295159666       18.1819244323      -21.3292098920  MEMB      131             0.0000000000
     16246       131  QMPE      H12B          -17.0433127844       17.9498442269      -21.6185447435  MEMB      131             0.0000000000
     16247       131  QMPE      C11           -16.5595672737       18.2354759099      -19.5368757110  MEMB      131             0.0000000000
     16248       131  QMPE      H11A          -17.3712846717       18.9459442954      -19.2710362548  MEMB      131             0.0000000000
     16249       131  QMPE      H11B          -15.6390557235       18.4890563297      -18.9688294836  MEMB      131             0.0000000000
     16250       131  QMPE      P             -16.7762640031       16.1694533546      -17.9786189883  MEMB      131             0.0000000000
     16251       131  QMPE      O13           -15.3167639645       16.2732702519      -17.6033668727  MEMB      131             0.0000000000
     16252       131  QMPE      O14           -17.4152109117       14.8477494629      -18.0494872127  MEMB      131             0.0000000000
     16253       131  QMPE      O11           -17.5955169766       17.0813065329      -17.0146530114  MEMB      131             0.0000000000
     16254       131  QMPE      O12           -16.9687933078       16.8946849675      -19.3615493768  MEMB      131             0.0000000000
     16255       131  QMPE      C1            -16.9420633649       17.7432120104      -15.9158255608  MEMB      131             0.0000000000
     16256       131  QMPE      HA            -17.4373084908       18.7097930429      -15.6817863781  MEMB      131             0.0000000000
     16257       131  QMPE      HB            -15.9228286469       18.0713524384      -16.2121453086  MEMB      131             0.0000000000
     16258       131  QMPE      C2            -16.6970607196       16.9679309819      -14.5597459365  MEMB      131             0.0000000000
     16259       131  QMPE      HS            -16.2482804248       15.9600827668      -14.6907394213  MEMB      131             0.0000000000
     16260       131  QMPE      O21           -17.9875924055       16.8035593031      -13.9344454882  MEMB      131             0.0000000000
     16261       131  QMPE      C21           -18.1006945873       15.8717509469      -12.9916052021  MEMB      131             0.0000000000
     16262       131  QMPE      O22           -17.3287545125       14.9467484007      -12.8199317059  MEMB      131             0.0000000000
     16263       131  QMPE      C22           -19.3917371247       16.0641588607      -12.2896499859  MEMB      131             0.0000000000
     16264       131  QMPE      H2R           -20.3043698172       15.7461520323      -12.8376412286  MEMB      131             0.0000000000
     16265       131  QMPE      H2S           -19.5863276046       17.1440479350      -12.1155951642  MEMB      131             0.0000000000
     16266       131  QMPE      C3            -15.7438343775       17.8685977646      -13.6600895708  MEMB      131             0.0000000000
     16267       131  QMPE      HX            -16.0551631899       18.9286351747      -13.7772049544  MEMB      131             0.0000000000
     16268       131  QMPE      HY            -14.7606817017       17.6635493446      -14.1351547340  MEMB      131             0.0000000000
     16269       131  QMPE      O31           -15.6758678510       17.3815501965      -12.3676233110  MEMB      131             0.0000000000
     16270       131  QMPE      C31           -14.9861210156       18.1820367017      -11.5531208611  MEMB      131             0.0000000000
     16271       131  QMPE      O32           -14.4756952966       19.2713132945      -11.8715890007  MEMB      131             0.0000000000
     16272       131  QMPE      C32           -14.8247396816       17.5518182402      -10.1724645873  MEMB      131             0.0000000000
     16273       131  QMPE      H2X           -15.6989386155       16.8837236632      -10.0183648831  MEMB      131             0.0000000000
     16274       131  QMPE      H2Y           -13.9022313418       16.9339397972      -10.2115248884  MEMB      131             0.0000000000
     16275       131  QMPE      C23           -19.4564814694       15.3086388336      -10.9342111859  MEMB      131             0.0000000000
     16276       131  QMPE      H3R           -19.1432865077       14.2493678527      -11.0532682229  MEMB      131             0.0000000000
     16277       131  QMPE      H3S           -20.5065207059       15.1897235566      -10.5912860523  MEMB      131             0.0000000000
     16278       131  QMPE      C24           -18.6217369942       15.8935583730       -9.8139758702  MEMB      131             0.0000000000
     16279       131  QMPE      H4R           -17.5895675642       16.0970930749      -10.1710764042  MEMB      131             0.0000000000
     16280       131  QMPE      H4S           -18.4759447225       15.1023750094       -9.0477552382  MEMB      131             0.0000000000
     16281       131  QMPE      C25           -19.0949593721       17.2662737030       -9.2657772112  MEMB      131             0.0000000000
     16282       131  QMPE      H5R           -18.7551285223       17.9501385253      -10.0727248832  MEMB      131             0.0000000000
     16283       131  QMPE      H5S           -18.4893393360       17.4016918500       -8.3442528436  MEMB      131             0.0000000000
     16284       131  QMPE      C26           -20.5623149182       17.4782632333       -8.8457085518  MEMB      131             0.0000000000
     16285       131  QMPE      H6R           -20.9749083320       16.6486861714       -8.2326103235  MEMB      131             0.0000000000
     16286       131  QMPE      H6S           -21.2343256915       17.5808203755       -9.7244598988  MEMB      131             0.0000000000
     16287       131  QMPE      C27           -20.7232401454       18.6458375635       -7.9528687855  MEMB      131             0.0000000000
     16288       131  QMPE      H7R           -21.7652718417       18.7432984831       -7.5800527593  MEMB      131             0.0000000000
     16289       131  QMPE      H7S           -20.4194109385       19.5834048583       -8.4656810469  MEMB      131             0.0000000000
     16290       131  QMPE      C28           -19.8853170271       18.6477678943       -6.6577838319  MEMB      131             0.0000000000
     16291       131  QMPE      H8R           -18.8640178451       19.0088491633       -6.9045413228  MEMB      131             0.0000000000
     16292       131  QMPE      H8S           -19.8437276821       17.5888335148       -6.3242428276  MEMB      131             0.0000000000
     16293       131  QMPE      C29           -20.4691047395       19.6021259437       -5.7169542704  MEMB      131             0.0000000000
     16294       131  QMPE      H9R           -20.7374728619       20.6077136626       -6.1056603444  MEMB      131             0.0000000000
     16295       131  QMPE      C217          -19.8636858904       19.4838534189       -4.2749653312  MEMB      131             0.0000000000
     16296       131  QMPE      H17R          -19.1786512574       18.6451842256       -4.2591362251  MEMB      131             0.0000000000
     16297       131  QMPE      H17S          -19.5883853134       20.4554440879       -3.8836724618  MEMB      131             0.0000000000
     16298       131  QMPE      C210          -21.2930551077       19.2206488255       -4.4573579077  MEMB      131             0.0000000000
     16299       131  QMPE      H10R          -22.0835019802       19.9785310403       -4.2699299311  MEMB      131             0.0000000000
     16300       131  QMPE      C211          -21.6491906306       17.7050703936       -4.3631321261  MEMB      131             0.0000000000
     16301       131  QMPE      H11R          -22.0671683383       17.4108460730       -5.3495632389  MEMB      131             0.0000000000
     16302       131  QMPE      H11S          -20.8051868487       17.0146137267       -4.1504160603  MEMB      131             0.0000000000
     16303       131  QMPE      C212          -22.6875071087       17.5031542276       -3.3695735761  MEMB      131             0.0000000000
     16304       131  QMPE      H12R          -22.8468636808       16.4078285039       -3.2737178646  MEMB      131             0.0000000000
     16305       131  QMPE      H12S          -23.6417613971       17.9869567707       -3.6689979803  MEMB      131             0.0000000000
     16306       131  QMPE      C213          -22.2952023432       18.0371169118       -1.9135048261  MEMB      131             0.0000000000
     16307       131  QMPE      H13R          -22.2893822064       19.1449840725       -1.9966757678  MEMB      131             0.0000000000
     16308       131  QMPE      H13S          -21.2466721039       17.7655187707       -1.6662404049  MEMB      131             0.0000000000
     16309       131  QMPE      C214          -22.9966696309       17.4822604385       -0.6905706347  MEMB      131             0.0000000000
     16310       131  QMPE      H14R          -22.9965487360       16.3751868694       -0.7838940042  MEMB      131             0.0000000000
     16311       131  QMPE      H14S          -24.0585340464       17.7960861691       -0.5995813990  MEMB      131             0.0000000000
     16312       131  QMPE      C215          -22.3138259810       17.8908482081        0.6975973268  MEMB      131             0.0000000000
     16313       131  QMPE      H15R          -21.2136859181       18.0446151309        0.7167991033  MEMB      131             0.0000000000
     16314       131  QMPE      H15S          -22.6592586510       17.2049217535        1.5004070713  MEMB      131             0.0000000000
     16315       131  QMPE      C216          -22.8994625515       19.2680642531        1.1671089276  MEMB      131             0.0000000000
     16316       131  QMPE      H16R          -21.9699689705       19.8680966227        1.2687148028  MEMB      131             0.0000000000
     16317       131  QMPE      H16S          -23.4785822964       19.2662150432        2.1152315063  MEMB      131             0.0000000000
     16318       131  QMPE      H16T          -23.6778668396       19.6458267889        0.4701850403  MEMB      131             0.0000000000
     16319       131  QMPE      C33           -14.7875844330       18.6746648087       -9.0584293423  MEMB      131             0.0000000000
     16320       131  QMPE      H3X           -15.6429503688       19.3297387255       -9.3296267969  MEMB      131             0.0000000000
     16321       131  QMPE      H3Y           -13.8383034217       19.2474796056       -8.9872294497  MEMB      131             0.0000000000
     16322       131  QMPE      C34           -15.1492135486       18.0656037422       -7.6324141912  MEMB      131             0.0000000000
     16323       131  QMPE      H4X           -16.0333826197       17.3989175922       -7.7223909398  MEMB      131             0.0000000000
     16324       131  QMPE      H4Y           -15.6745877519       18.9121156642       -7.1407637356  MEMB      131             0.0000000000
     16325       131  QMPE      C35           -13.9476510663       17.4635128192       -6.8355902243  MEMB      131             0.0000000000
     16326       131  QMPE      H5X           -13.2943518162       18.2798342526       -6.4599034795  MEMB      131             0.0000000000
     16327       131  QMPE      H5Y           -13.3113334557       16.7918922869       -7.4506889052  MEMB      131             0.0000000000
     16328       131  QMPE      C36           -14.4862209609       16.6729197245       -5.5697841898  MEMB      131             0.0000000000
     16329       131  QMPE      H6X           -13.5885418698       16.1205852141       -5.2184716903  MEMB      131             0.0000000000
     16330       131  QMPE      H6Y           -15.2421402452       15.9369281999       -5.9179549984  MEMB      131             0.0000000000
     16331       131  QMPE      C37           -15.1079351862       17.5045009678       -4.4077122581  MEMB      131             0.0000000000
     16332       131  QMPE      H7X           -14.4367795735       18.2670907787       -3.9579042942  MEMB      131             0.0000000000
     16333       131  QMPE      H7Y           -15.9688194861       18.0746339650       -4.8177702524  MEMB      131             0.0000000000
     16334       131  QMPE      C38           -15.6191297983       16.6323864141       -3.2246065444  MEMB      131             0.0000000000
     16335       131  QMPE      H8X           -15.0531301287       15.6770824561       -3.2614774176  MEMB      131             0.0000000000
     16336       131  QMPE      H8Y           -15.3830246760       17.2315400756       -2.3192942697  MEMB      131             0.0000000000
     16337       131  QMPE      C39           -17.1424800199       16.3684778609       -3.4479309045  MEMB      131             0.0000000000
     16338       131  QMPE      H9X           -17.2805373020       15.4157777851       -4.0025699913  MEMB      131             0.0000000000
     16339       131  QMPE      H9Y           -17.5585309304       17.3061844239       -3.8744618749  MEMB      131             0.0000000000
     16340       131  QMPE      C310          -17.7939697806       16.1211034114       -2.0752884703  MEMB      131             0.0000000000
     16341       131  QMPE      H10X          -17.2041111836       15.2861293224       -1.6403103182  MEMB      131             0.0000000000
     16342       131  QMPE      H10Y          -18.8783219219       15.9073074122       -2.1883937440  MEMB      131             0.0000000000
     16343       131  QMPE      C311          -17.7129187466       17.2488275725       -0.9840334763  MEMB      131             0.0000000000
     16344       131  QMPE      H11X          -18.0304726381       18.2089547825       -1.4440722335  MEMB      131             0.0000000000
     16345       131  QMPE      H11Y          -16.6508352005       17.4479835971       -0.7258924526  MEMB      131             0.0000000000
     16346       131  QMPE      C312          -18.5031223733       16.9510089673        0.3324147305  MEMB      131             0.0000000000
     16347       131  QMPE      H12X          -18.0844874641       16.0333601751        0.7982320802  MEMB      131             0.0000000000
     16348       131  QMPE      H12Y          -19.5572835359       16.6836805735        0.1052568002  MEMB      131             0.0000000000
     16349       131  QMPE      C313          -18.5193550762       18.1138455424        1.3811382734  MEMB      131             0.0000000000
     16350       131  QMPE      H13X          -18.9242555688       19.0296557076        0.8998199078  MEMB      131             0.0000000000
     16351       131  QMPE      H13Y          -19.1384677819       17.7353370115        2.2224186127  MEMB      131             0.0000000000
     16352       131  QMPE      C314          -17.1471534261       18.5183517407        1.8926248315  MEMB      131             0.0000000000
     16353       131  QMPE      H14X          -17.3438348992       19.2415217456        2.7127838217  MEMB      131             0.0000000000
     16354       131  QMPE      H14Y          -16.6544990259       19.0288528823        1.0376386412  MEMB      131             0.0000000000
     16355       131  QMPE      C315          -16.0864139395       17.5239649525        2.3796442805  MEMB      131             0.0000000000
     16356       131  QMPE      H15X          -15.7044896341       16.9639474194        1.4993972811  MEMB      131             0.0000000000
     16357       131  QMPE      H15Y          -15.2095030861       18.0721737489        2.7856192142  MEMB      131             0.0000000000
     16358       131  QMPE      H15Z          -16.5104835542       16.9121008452        3.2043311736  MEMB      131             0.0000000000
     16359       132  PMPE      N             -22.7063759731      -13.9330982842      -20.8857511854  MEMB      132             0.0000000000
     16360       132  PMPE      HN1           -22.5821594562      -14.6267144778      -20.1208545598  MEMB      132             0.0000000000
     16361       132  PMPE      HN2           -23.5469693791      -14.2467632759      -21.4116954123  MEMB      132             0.0000000000
     16362       132  PMPE      HN3           -21.8927400644      -13.9572756976      -21.5330626134  MEMB      132             0.0000000000
     16363       132  PMPE      C12           -22.8339235115      -12.4828772096      -20.3826492966  MEMB      132             0.0000000000
     16364       132  PMPE      H12A          -23.6975293320      -12.5857115258      -19.6913236626  MEMB      132             0.0000000000
     16365       132  PMPE      H12B          -22.8904170237      -11.9034876268      -21.3289247336  MEMB      132             0.0000000000
     16366       132  PMPE      C11           -21.6182734074      -12.1304501458      -19.5180748316  MEMB      132             0.0000000000
     16367       132  PMPE      H11A          -21.8352734138      -11.1272009047      -19.0929596380  MEMB      132             0.0000000000
     16368       132  PMPE      H11B          -20.7969963020      -12.0932207856      -20.2653624375  MEMB      132             0.0000000000
     16369       132  PMPE      P             -19.8907637816      -13.6408332225      -18.2852028200  MEMB      132             0.0000000000
     16370       132  PMPE      O13           -18.9864732508      -12.5878446945      -17.7306633676  MEMB      132             0.0000000000
     16371       132  PMPE      O14           -19.4886406166      -14.2862222868      -19.5487892418  MEMB      132             0.0000000000
     16372       132  PMPE      O11           -20.0386125180      -14.7756918660      -17.2401081562  MEMB      132             0.0000000000
     16373       132  PMPE      O12           -21.3553961766      -13.0209983400      -18.4087610997  MEMB      132             0.0000000000
     16374       132  PMPE      C1            -21.2521708736      -14.9844432709      -16.5253397895  MEMB      132             0.0000000000
     16375       132  PMPE      HA            -21.1693571800      -16.0164100634      -16.1222174493  MEMB      132             0.0000000000
     16376       132  PMPE      HB            -22.0808420090      -15.0506515027      -17.2623890167  MEMB      132             0.0000000000
     16377       132  PMPE      C2            -21.3767108279      -13.8412380752      -15.4134320470  MEMB      132             0.0000000000
     16378       132  PMPE      HS            -21.7940135253      -12.9399059020      -15.9112068076  MEMB      132             0.0000000000
     16379       132  PMPE      O21           -20.1025802536      -13.6144769712      -14.7960930726  MEMB      132             0.0000000000
     16380       132  PMPE      C21           -19.9022546249      -12.4453166798      -14.2377996196  MEMB      132             0.0000000000
     16381       132  PMPE      O22           -20.5970457616      -11.4192879130      -14.2294151546  MEMB      132             0.0000000000
     16382       132  PMPE      C22           -18.6488641340      -12.4914092451      -13.4312773827  MEMB      132             0.0000000000
     16383       132  PMPE      H2R           -18.0055682429      -11.7062678528      -13.8829900145  MEMB      132             0.0000000000
     16384       132  PMPE      H2S           -18.1408870499      -13.4411367109      -13.7038536370  MEMB      132             0.0000000000
     16385       132  PMPE      C3            -22.3523336469      -14.4740443155      -14.3551724868  MEMB      132             0.0000000000
     16386       132  PMPE      HX            -21.9061601400      -15.4006823698      -13.9349439497  MEMB      132             0.0000000000
     16387       132  PMPE      HY            -23.2644783246      -14.6788091945      -14.9554929359  MEMB      132             0.0000000000
     16388       132  PMPE      O31           -22.7092108115      -13.5940480086      -13.2560945743  MEMB      132             0.0000000000
     16389       132  PMPE      C31           -23.5620985340      -14.1642634333      -12.3868165949  MEMB      132             0.0000000000
     16390       132  PMPE      O32           -24.1417709176      -15.2466921363      -12.5799724673  MEMB      132             0.0000000000
     16391       132  PMPE      C32           -23.7094903583      -13.3293437108      -11.1230278845  MEMB      132             0.0000000000
     16392       132  PMPE      H2X           -24.2647734507      -12.3783228352      -11.2697949281  MEMB      132             0.0000000000
     16393       132  PMPE      H2Y           -22.7084085824      -13.0347017648      -10.7417896455  MEMB      132             0.0000000000
     16394       132  PMPE      C23           -18.8413913860      -12.3341108042      -11.9533035512  MEMB      132             0.0000000000
     16395       132  PMPE      H3R           -19.7217619524      -11.6701554943      -11.8175389049  MEMB      132             0.0000000000
     16396       132  PMPE      H3S           -17.9342096578      -11.8720106426      -11.5085499829  MEMB      132             0.0000000000
     16397       132  PMPE      C24           -19.1427552582      -13.7029169170      -11.3148201190  MEMB      132             0.0000000000
     16398       132  PMPE      H4R           -18.2985610850      -14.4008774551      -11.5005841728  MEMB      132             0.0000000000
     16399       132  PMPE      H4S           -19.9607324829      -14.1071648493      -11.9487113682  MEMB      132             0.0000000000
     16400       132  PMPE      C25           -19.5344918782      -13.6866919935       -9.8630180237  MEMB      132             0.0000000000
     16401       132  PMPE      H5R           -20.3820887609      -12.9735251223       -9.7776160675  MEMB      132             0.0000000000
     16402       132  PMPE      H5S           -18.7048240878      -13.3468267734       -9.2069209981  MEMB      132             0.0000000000
     16403       132  PMPE      C26           -20.1023228819      -15.0085894890       -9.2872667140  MEMB      132             0.0000000000
     16404       132  PMPE      H6R           -19.2741725894      -15.7257035831       -9.1022384877  MEMB      132             0.0000000000
     16405       132  PMPE      H6S           -20.8280299478      -15.1640733404      -10.1140038929  MEMB      132             0.0000000000
     16406       132  PMPE      C27           -20.8549102484      -14.8518614864       -7.9582257353  MEMB      132             0.0000000000
     16407       132  PMPE      H7R           -21.4910729439      -15.7549188185       -8.0769919102  MEMB      132             0.0000000000
     16408       132  PMPE      H7S           -21.4347549275      -13.9158453300       -7.8099857782  MEMB      132             0.0000000000
     16409       132  PMPE      C28           -20.0013523111      -15.1260987864       -6.7182020555  MEMB      132             0.0000000000
     16410       132  PMPE      H8R           -19.5501009479      -16.1389583541       -6.7875463054  MEMB      132             0.0000000000
     16411       132  PMPE      H8S           -20.7404645090      -15.2013212270       -5.8921418981  MEMB      132             0.0000000000
     16412       132  PMPE      C29           -18.9857060938      -14.0410480885       -6.3091594430  MEMB      132             0.0000000000
     16413       132  PMPE      H9R           -19.4149102215      -13.0547276502       -6.0311728133  MEMB      132             0.0000000000
     16414       132  PMPE      C217          -17.5731363531      -14.0628554186       -6.9005980116  MEMB      132             0.0000000000
     16415       132  PMPE      H17R          -17.1891729526      -13.0791440185       -7.1409579440  MEMB      132             0.0000000000
     16416       132  PMPE      H17S          -17.5583680618      -14.9363249260       -7.5406940875  MEMB      132             0.0000000000
     16417       132  PMPE      C210          -17.7504504350      -14.4371451159       -5.4266274790  MEMB      132             0.0000000000
     16418       132  PMPE      H10R          -17.3937261922      -13.6782242703       -4.6978556527  MEMB      132             0.0000000000
     16419       132  PMPE      C211          -17.4536848892      -15.8540337647       -5.0660465223  MEMB      132             0.0000000000
     16420       132  PMPE      H11R          -16.3469684439      -15.9509306356       -5.0765744776  MEMB      132             0.0000000000
     16421       132  PMPE      H11S          -17.7880984629      -16.5514635792       -5.8635924124  MEMB      132             0.0000000000
     16422       132  PMPE      C212          -18.1586598856      -16.3592767608       -3.8335081536  MEMB      132             0.0000000000
     16423       132  PMPE      H12R          -19.0769424461      -16.8455707743       -4.2266953781  MEMB      132             0.0000000000
     16424       132  PMPE      H12S          -18.5693512480      -15.4829814501       -3.2878336238  MEMB      132             0.0000000000
     16425       132  PMPE      C213          -17.2411696361      -17.3756120836       -3.0021024938  MEMB      132             0.0000000000
     16426       132  PMPE      H13R          -16.4222751454      -16.8033345104       -2.5160654679  MEMB      132             0.0000000000
     16427       132  PMPE      H13S          -16.7677626530      -18.0075347866       -3.7836906942  MEMB      132             0.0000000000
     16428       132  PMPE      C214          -17.9093701112      -18.1338118254       -1.8261971546  MEMB      132             0.0000000000
     16429       132  PMPE      H14R          -17.2413662981      -18.8949618791       -1.3693138937  MEMB      132             0.0000000000
     16430       132  PMPE      H14S          -18.6780929102      -18.7936963754       -2.2822006058  MEMB      132             0.0000000000
     16431       132  PMPE      C215          -18.4624028456      -17.3030152362       -0.6428068469  MEMB      132             0.0000000000
     16432       132  PMPE      H15R          -19.1595835369      -18.0381553961       -0.1869247244  MEMB      132             0.0000000000
     16433       132  PMPE      H15S          -19.1243652631      -16.5053368703       -1.0426020789  MEMB      132             0.0000000000
     16434       132  PMPE      C216          -17.5280132022      -16.8206807320        0.4413440789  MEMB      132             0.0000000000
     16435       132  PMPE      H16R          -16.7455061257      -17.5240628357        0.7980753000  MEMB      132             0.0000000000
     16436       132  PMPE      H16S          -16.9318795875      -15.9882154178        0.0101275806  MEMB      132             0.0000000000
     16437       132  PMPE      H16T          -18.0559671171      -16.4025033683        1.3249244159  MEMB      132             0.0000000000
     16438       132  PMPE      C33           -24.5240160925      -14.2156815065      -10.1276925663  MEMB      132             0.0000000000
     16439       132  PMPE      H3X           -24.0910858293      -15.2386104495      -10.1051313588  MEMB      132             0.0000000000
     16440       132  PMPE      H3Y           -25.5550170422      -14.3924478908      -10.5020074144  MEMB      132             0.0000000000
     16441       132  PMPE      C34           -24.6781388156      -13.5250192109       -8.7174752403  MEMB      132             0.0000000000
     16442       132  PMPE      H4X           -25.1375831205      -12.5703731720       -9.0519642634  MEMB      132             0.0000000000
     16443       132  PMPE      H4Y           -23.6759646122      -13.4180606785       -8.2500057926  MEMB      132             0.0000000000
     16444       132  PMPE      C35           -25.5545905284      -14.2824713370       -7.8017292283  MEMB      132             0.0000000000
     16445       132  PMPE      H5X           -26.5187139074      -14.4692132811       -8.3212621275  MEMB      132             0.0000000000
     16446       132  PMPE      H5Y           -25.7124501556      -13.6239812817       -6.9209387905  MEMB      132             0.0000000000
     16447       132  PMPE      C36           -24.8855345638      -15.6381255147       -7.4017149793  MEMB      132             0.0000000000
     16448       132  PMPE      H6X           -23.8194055087      -15.4297095080       -7.1687933266  MEMB      132             0.0000000000
     16449       132  PMPE      H6Y           -24.7491256542      -16.3660514538       -8.2298679380  MEMB      132             0.0000000000
     16450       132  PMPE      C37           -25.3094323970      -16.3936618213       -6.0968970388  MEMB      132             0.0000000000
     16451       132  PMPE      H7X           -24.8419814938      -17.4006602404       -6.1389058667  MEMB      132             0.0000000000
     16452       132  PMPE      H7Y           -26.4169056881      -16.4553286485       -6.0334818280  MEMB      132             0.0000000000
     16453       132  PMPE      C38           -24.9687694465      -15.8339241404       -4.7573306368  MEMB      132             0.0000000000
     16454       132  PMPE      H8X           -25.2279017123      -16.6684215854       -4.0711919569  MEMB      132             0.0000000000
     16455       132  PMPE      H8Y           -25.5368143535      -14.9275446013       -4.4571276342  MEMB      132             0.0000000000
     16456       132  PMPE      C39           -23.5075389624      -15.4585950115       -4.5095008720  MEMB      132             0.0000000000
     16457       132  PMPE      H9X           -23.2426136991      -14.5180128596       -5.0381220928  MEMB      132             0.0000000000
     16458       132  PMPE      H9Y           -22.8157123442      -16.2395837041       -4.8912782367  MEMB      132             0.0000000000
     16459       132  PMPE      C310          -23.1263460286      -15.1737574075       -3.0528464038  MEMB      132             0.0000000000
     16460       132  PMPE      H10X          -23.1344886285      -16.1252967894       -2.4794107331  MEMB      132             0.0000000000
     16461       132  PMPE      H10Y          -23.9998583651      -14.6186413095       -2.6489367227  MEMB      132             0.0000000000
     16462       132  PMPE      C311          -21.7624004308      -14.5779215521       -2.9798978395  MEMB      132             0.0000000000
     16463       132  PMPE      H11X          -21.7810415107      -13.5390678865       -3.3732898598  MEMB      132             0.0000000000
     16464       132  PMPE      H11Y          -21.0686534183      -15.1741319725       -3.6104291597  MEMB      132             0.0000000000
     16465       132  PMPE      C312          -21.1443041163      -14.4976243877       -1.5983309866  MEMB      132             0.0000000000
     16466       132  PMPE      H12X          -20.2477390032      -13.8546685545       -1.4675651861  MEMB      132             0.0000000000
     16467       132  PMPE      H12Y          -20.9617858795      -15.5600163840       -1.3293850562  MEMB      132             0.0000000000
     16468       132  PMPE      C313          -22.1889945418      -13.9718105382       -0.4731789939  MEMB      132             0.0000000000
     16469       132  PMPE      H13X          -21.6743928132      -14.0951686415        0.5036974465  MEMB      132             0.0000000000
     16470       132  PMPE      H13Y          -23.0524009625      -14.6707931248       -0.4897156180  MEMB      132             0.0000000000
     16471       132  PMPE      C314          -22.5883606064      -12.5562964153       -0.5804730206  MEMB      132             0.0000000000
     16472       132  PMPE      H14X          -23.4076036241      -12.3799509727        0.1489548145  MEMB      132             0.0000000000
     16473       132  PMPE      H14Y          -23.0658464789      -12.3456643077       -1.5612689499  MEMB      132             0.0000000000
     16474       132  PMPE      C315          -21.4979237288      -11.5367878792       -0.3452025377  MEMB      132             0.0000000000
     16475       132  PMPE      H15X          -21.7578106312      -10.5206662150       -0.7116412094  MEMB      132             0.0000000000
     16476       132  PMPE      H15Y          -20.5958547661      -11.6906944950       -0.9752065015  MEMB      132             0.0000000000
     16477       132  PMPE      C316          -21.1697748301      -11.4380551817        1.1884655160  MEMB      132             0.0000000000
     16478       132  PMPE      H16X          -20.3979777206      -10.6406971499        1.2420417929  MEMB      132             0.0000000000
     16479       132  PMPE      H16Y          -20.6645591633      -12.2945146126        1.6840017223  MEMB      132             0.0000000000
     16480       132  PMPE      H16Z          -22.0408157308      -11.2060670254        1.8379187898  MEMB      132             0.0000000000
     16481       133  QMPE      N              25.8061857313        4.5220017326      -21.5694039582  MEMB      133             0.0000000000
     16482       133  QMPE      HN1            25.8368482325        4.9138666407      -22.5322652318  MEMB      133             0.0000000000
     16483       133  QMPE      HN2            25.4889037157        5.3551541753      -21.0338769649  MEMB      133             0.0000000000
     16484       133  QMPE      HN3            26.7892582870        4.2739304560      -21.3378244150  MEMB      133             0.0000000000
     16485       133  QMPE      C12            24.9597077741        3.2882561162      -21.4901712584  MEMB      133             0.0000000000
     16486       133  QMPE      H12A           25.6075711186        2.5099473126      -21.9471497922  MEMB      133             0.0000000000
     16487       133  QMPE      H12B           24.1033054899        3.3861851088      -22.1911035009  MEMB      133             0.0000000000
     16488       133  QMPE      C11            24.4029783775        3.0029341812      -20.0721280351  MEMB      133             0.0000000000
     16489       133  QMPE      H11A           23.7622073830        2.1139730086      -20.2551078683  MEMB      133             0.0000000000
     16490       133  QMPE      H11B           23.7234156756        3.8611510261      -19.8824457056  MEMB      133             0.0000000000
     16491       133  QMPE      P              25.3159700676        3.5568449911      -17.7529873379  MEMB      133             0.0000000000
     16492       133  QMPE      O13            23.9508467798        3.3328074728      -17.2850941990  MEMB      133             0.0000000000
     16493       133  QMPE      O14            25.7934948784        4.9632874776      -17.8852923773  MEMB      133             0.0000000000
     16494       133  QMPE      O11            26.1830761457        2.6922199496      -16.7815823463  MEMB      133             0.0000000000
     16495       133  QMPE      O12            25.5022458487        2.7982497554      -19.1633404917  MEMB      133             0.0000000000
     16496       133  QMPE      C1             27.3362749144        2.0385768741      -17.3026424501  MEMB      133             0.0000000000
     16497       133  QMPE      HA             27.9478491623        2.6435068878      -18.0057480341  MEMB      133             0.0000000000
     16498       133  QMPE      HB             26.9864532309        1.0702549097      -17.7201330549  MEMB      133             0.0000000000
     16499       133  QMPE      C2             28.3309299337        1.7504481052      -16.0967065569  MEMB      133             0.0000000000
     16500       133  QMPE      HS             29.1377254489        1.1325921126      -16.5457677971  MEMB      133             0.0000000000
     16501       133  QMPE      O21            27.6772282141        0.9575868123      -15.0591176426  MEMB      133             0.0000000000
     16502       133  QMPE      C21            27.5546195041       -0.3507590464      -15.2408408158  MEMB      133             0.0000000000
     16503       133  QMPE      O22            28.1065602013       -0.9783312676      -16.1028564252  MEMB      133             0.0000000000
     16504       133  QMPE      C22            26.5919375550       -0.9264261295      -14.2091097516  MEMB      133             0.0000000000
     16505       133  QMPE      H2R            27.1828779151       -1.2905211034      -13.3416163044  MEMB      133             0.0000000000
     16506       133  QMPE      H2S            26.1348387448       -1.7547389656      -14.7915870140  MEMB      133             0.0000000000
     16507       133  QMPE      C3             28.8538558887        3.0498986914      -15.5456453969  MEMB      133             0.0000000000
     16508       133  QMPE      HX             29.3572021585        3.6887100948      -16.3025362750  MEMB      133             0.0000000000
     16509       133  QMPE      HY             29.4769908760        2.6852968773      -14.7011992799  MEMB      133             0.0000000000
     16510       133  QMPE      O31            27.7739523547        3.8748546789      -14.9796380285  MEMB      133             0.0000000000
     16511       133  QMPE      C31            27.5546843108        3.8987495746      -13.7167709383  MEMB      133             0.0000000000
     16512       133  QMPE      O32            28.2027149626        3.2611629277      -12.9260623796  MEMB      133             0.0000000000
     16513       133  QMPE      C32            26.4831888445        4.9965810009      -13.4096485825  MEMB      133             0.0000000000
     16514       133  QMPE      H2X            26.8498819275        5.9056717642      -13.9325352310  MEMB      133             0.0000000000
     16515       133  QMPE      H2Y            25.4893923118        4.7094096058      -13.8148919235  MEMB      133             0.0000000000
     16516       133  QMPE      C23            25.5486572375        0.0553254009      -13.6858979588  MEMB      133             0.0000000000
     16517       133  QMPE      H3R            24.7666375894        0.4647495499      -14.3605369542  MEMB      133             0.0000000000
     16518       133  QMPE      H3S            26.1358264729        0.9597183980      -13.4182665620  MEMB      133             0.0000000000
     16519       133  QMPE      C24            24.6266645323       -0.6243497175      -12.6332022100  MEMB      133             0.0000000000
     16520       133  QMPE      H4R            25.3126078644       -1.0757383370      -11.8848364362  MEMB      133             0.0000000000
     16521       133  QMPE      H4S            23.9349135664       -1.3538507864      -13.1060972215  MEMB      133             0.0000000000
     16522       133  QMPE      C25            23.7740354420        0.2818699568      -11.7766982471  MEMB      133             0.0000000000
     16523       133  QMPE      H5R            23.2529409299       -0.2704288609      -10.9656817062  MEMB      133             0.0000000000
     16524       133  QMPE      H5S            23.0501607452        0.7353728528      -12.4870938876  MEMB      133             0.0000000000
     16525       133  QMPE      C26            24.5394797640        1.5051821737      -11.2340334453  MEMB      133             0.0000000000
     16526       133  QMPE      H6R            23.6968688454        2.0475304675      -10.7542559600  MEMB      133             0.0000000000
     16527       133  QMPE      H6S            24.9713148302        2.2298465700      -11.9570139235  MEMB      133             0.0000000000
     16528       133  QMPE      C27            25.3447247263        1.3847307587       -9.9320125281  MEMB      133             0.0000000000
     16529       133  QMPE      H7R            24.7612867033        1.1454895012       -9.0173074746  MEMB      133             0.0000000000
     16530       133  QMPE      H7S            25.9286639741        2.3273099279       -9.8621529096  MEMB      133             0.0000000000
     16531       133  QMPE      C28            26.5224912839        0.3488700591       -9.9837288591  MEMB      133             0.0000000000
     16532       133  QMPE      H8R            27.0480451874        0.4172597251      -10.9601705040  MEMB      133             0.0000000000
     16533       133  QMPE      H8S            26.1041764826       -0.6722703991       -9.8548664502  MEMB      133             0.0000000000
     16534       133  QMPE      C29            27.4448271662        0.7329874020       -8.7932980286  MEMB      133             0.0000000000
     16535       133  QMPE      H9R            27.9949236228        1.6970827668       -8.8405735863  MEMB      133             0.0000000000
     16536       133  QMPE      C217           28.0878199467       -0.4889251292       -8.1452483904  MEMB      133             0.0000000000
     16537       133  QMPE      H17R           27.7111374029       -1.4685507666       -8.4123311095  MEMB      133             0.0000000000
     16538       133  QMPE      H17S           28.9802810886       -0.3023488184       -7.5607900240  MEMB      133             0.0000000000
     16539       133  QMPE      C210           26.9704899687        0.3327844365       -7.4273430705  MEMB      133             0.0000000000
     16540       133  QMPE      H10R           27.3148269669        0.9053314242       -6.5396814263  MEMB      133             0.0000000000
     16541       133  QMPE      C211           25.7382074515       -0.5293870676       -7.1940076054  MEMB      133             0.0000000000
     16542       133  QMPE      H11R           25.0066096453        0.1872887564       -6.7633551558  MEMB      133             0.0000000000
     16543       133  QMPE      H11S           25.3645656527       -1.0558160415       -8.0982114107  MEMB      133             0.0000000000
     16544       133  QMPE      C212           26.0328613136       -1.6462613861       -6.1862598812  MEMB      133             0.0000000000
     16545       133  QMPE      H12R           26.4960394862       -1.2926573267       -5.2403476166  MEMB      133             0.0000000000
     16546       133  QMPE      H12S           26.6973967519       -2.4283378345       -6.6117830240  MEMB      133             0.0000000000
     16547       133  QMPE      C213           24.7338939767       -2.3044617738       -5.7632352342  MEMB      133             0.0000000000
     16548       133  QMPE      H13R           24.1198126244       -2.5935332242       -6.6428158285  MEMB      133             0.0000000000
     16549       133  QMPE      H13S           24.1144231993       -1.5871971838       -5.1834868270  MEMB      133             0.0000000000
     16550       133  QMPE      C214           24.9895564110       -3.7017817046       -5.0595028293  MEMB      133             0.0000000000
     16551       133  QMPE      H14R           25.7836073133       -4.1325179532       -5.7062410605  MEMB      133             0.0000000000
     16552       133  QMPE      H14S           24.0904614137       -4.3467032454       -5.1596308679  MEMB      133             0.0000000000
     16553       133  QMPE      C215           25.4726397827       -3.5341974384       -3.6044647896  MEMB      133             0.0000000000
     16554       133  QMPE      H15R           26.1664233212       -2.6668391731       -3.5784880347  MEMB      133             0.0000000000
     16555       133  QMPE      H15S           25.9767408928       -4.4960862327       -3.3700009480  MEMB      133             0.0000000000
     16556       133  QMPE      C216           24.5382262757       -3.2770125117       -2.3879305700  MEMB      133             0.0000000000
     16557       133  QMPE      H16R           23.7238923298       -4.0092508981       -2.2008245964  MEMB      133             0.0000000000
     16558       133  QMPE      H16S           23.8792983144       -2.3957093473       -2.5410319932  MEMB      133             0.0000000000
     16559       133  QMPE      H16T           24.9937327335       -3.1271238615       -1.3857477942  MEMB      133             0.0000000000
     16560       133  QMPE      C33            26.3144382277        5.1674175229      -11.8756324920  MEMB      133             0.0000000000
     16561       133  QMPE      H3X            26.1841283215        4.1112163756      -11.5566034484  MEMB      133             0.0000000000
     16562       133  QMPE      H3Y            25.3756317501        5.7288381557      -11.6812866645  MEMB      133             0.0000000000
     16563       133  QMPE      C34            27.2758962468        6.0860302148      -11.1385482370  MEMB      133             0.0000000000
     16564       133  QMPE      H4X            27.1035080127        7.1450611855      -11.4267443069  MEMB      133             0.0000000000
     16565       133  QMPE      H4Y            28.2410582647        5.6947836343      -11.5254709610  MEMB      133             0.0000000000
     16566       133  QMPE      C35            27.2533656422        6.1606856275       -9.6441653915  MEMB      133             0.0000000000
     16567       133  QMPE      H5X            26.2254678326        6.3282336648       -9.2572874800  MEMB      133             0.0000000000
     16568       133  QMPE      H5Y            27.8694015258        6.9938913343       -9.2434297490  MEMB      133             0.0000000000
     16569       133  QMPE      C36            27.6621966103        4.9438759378       -8.8851239810  MEMB      133             0.0000000000
     16570       133  QMPE      H6X            28.6473265492        4.5351233719       -9.1961893183  MEMB      133             0.0000000000
     16571       133  QMPE      H6Y            27.1324623586        3.9837838514       -9.0638021292  MEMB      133             0.0000000000
     16572       133  QMPE      C37            27.6679989490        5.0387777129       -7.3691744873  MEMB      133             0.0000000000
     16573       133  QMPE      H7X            28.0868551508        4.0638508093       -7.0399353242  MEMB      133             0.0000000000
     16574       133  QMPE      H7Y            28.3585060282        5.8814575916       -7.1514321314  MEMB      133             0.0000000000
     16575       133  QMPE      C38            26.2871589951        5.1364403307       -6.5910566965  MEMB      133             0.0000000000
     16576       133  QMPE      H8X            26.3581332049        5.1899243836       -5.4836170094  MEMB      133             0.0000000000
     16577       133  QMPE      H8Y            25.7081645510        5.9818224159       -7.0204922558  MEMB      133             0.0000000000
     16578       133  QMPE      C39            25.3304709347        4.0245311213       -6.9691728160  MEMB      133             0.0000000000
     16579       133  QMPE      H9X            25.7085953731        3.0099753506       -6.7201356802  MEMB      133             0.0000000000
     16580       133  QMPE      H9Y            25.1621116622        3.8821042961       -8.0580677648  MEMB      133             0.0000000000
     16581       133  QMPE      C310           23.9379097208        4.1349072119       -6.3592885615  MEMB      133             0.0000000000
     16582       133  QMPE      H10X           23.2712615867        3.3865697690       -6.8387597628  MEMB      133             0.0000000000
     16583       133  QMPE      H10Y           23.5377853071        5.1534940948       -6.5508666988  MEMB      133             0.0000000000
     16584       133  QMPE      C311           23.8527827109        3.7830363560       -4.8646803672  MEMB      133             0.0000000000
     16585       133  QMPE      H11X           22.7886212766        3.7299877353       -4.5499307919  MEMB      133             0.0000000000
     16586       133  QMPE      H11Y           24.4515607657        4.5407918517       -4.3155061442  MEMB      133             0.0000000000
     16587       133  QMPE      C312           24.3508931372        2.3794152587       -4.4552516576  MEMB      133             0.0000000000
     16588       133  QMPE      H12X           25.4491729577        2.2850341945       -4.5937968787  MEMB      133             0.0000000000
     16589       133  QMPE      H12Y           23.8517834949        1.5901251342       -5.0571082259  MEMB      133             0.0000000000
     16590       133  QMPE      C313           24.1027738539        2.0334618598       -2.9701364469  MEMB      133             0.0000000000
     16591       133  QMPE      H13X           24.8192753519        1.2718742017       -2.5947296264  MEMB      133             0.0000000000
     16592       133  QMPE      H13Y           24.2808497692        2.9979063603       -2.4481624414  MEMB      133             0.0000000000
     16593       133  QMPE      C314           22.7187542792        1.4977448864       -2.5809274119  MEMB      133             0.0000000000
     16594       133  QMPE      H14X           22.3637976393        0.5701995019       -3.0789099779  MEMB      133             0.0000000000
     16595       133  QMPE      H14Y           21.9948316745        2.3257039403       -2.7382199990  MEMB      133             0.0000000000
     16596       133  QMPE      C315           22.7475583355        1.1700914813       -1.1309582259  MEMB      133             0.0000000000
     16597       133  QMPE      H15X           23.7859573757        1.0298111028       -0.7616753653  MEMB      133             0.0000000000
     16598       133  QMPE      H15Y           22.3665829124        2.0453155273       -0.5624854113  MEMB      133             0.0000000000
     16599       133  QMPE      H15Z           22.3454042930        0.1716233314       -0.8559062213  MEMB      133             0.0000000000
     16600       134  OYPE      N             -25.0533142754       -9.0232034668      -21.1909281362  MEMB      134             0.0000000000
     16601       134  OYPE      HN1           -24.5275404068       -9.6487854694      -21.8342080790  MEMB      134             0.0000000000
     16602       134  OYPE      HN2           -25.7040177974       -9.5856772280      -20.6062844549  MEMB      134             0.0000000000
     16603       134  OYPE      HN3           -25.4655164743       -8.2553409197      -21.7584459501  MEMB      134             0.0000000000
     16604       134  OYPE      C12           -23.9889667432       -8.4094166901      -20.2520976254  MEMB      134             0.0000000000
     16605       134  OYPE      H12A          -23.2121936174       -7.8778781856      -20.8423613059  MEMB      134             0.0000000000
     16606       134  OYPE      H12B          -23.3805552074       -9.1953547251      -19.7556525193  MEMB      134             0.0000000000
     16607       134  OYPE      C11           -24.6838530004       -7.5873700165      -19.0545915257  MEMB      134             0.0000000000
     16608       134  OYPE      H11A          -23.8777983305       -7.2291047475      -18.3791340140  MEMB      134             0.0000000000
     16609       134  OYPE      H11B          -25.3483809290       -8.3258318230      -18.5572006112  MEMB      134             0.0000000000
     16610       134  OYPE      P             -26.2020263406       -5.7370311086      -18.2727568323  MEMB      134             0.0000000000
     16611       134  OYPE      O13           -26.9982580361       -4.6001472233      -18.7116730823  MEMB      134             0.0000000000
     16612       134  OYPE      O14           -25.3373027670       -5.4862346273      -17.1179289142  MEMB      134             0.0000000000
     16613       134  OYPE      O11           -27.2755950273       -6.8326309479      -17.9237496805  MEMB      134             0.0000000000
     16614       134  OYPE      O12           -25.3734501950       -6.3685333525      -19.4762741848  MEMB      134             0.0000000000
     16615       134  OYPE      C1            -28.4093793750       -7.0787000336      -18.7430047498  MEMB      134             0.0000000000
     16616       134  OYPE      HA            -27.9724983655       -7.2637376982      -19.7476027063  MEMB      134             0.0000000000
     16617       134  OYPE      HB            -29.0713798199       -6.1908695102      -18.6544988813  MEMB      134             0.0000000000
     16618       134  OYPE      C2            -29.0931893529       -8.2951758206      -18.2366778795  MEMB      134             0.0000000000
     16619       134  OYPE      HS            -30.1407885063       -8.3530620104      -18.6020629055  MEMB      134             0.0000000000
     16620       134  OYPE      O21           -29.1028192525       -8.3558154687      -16.7551245149  MEMB      134             0.0000000000
     16621       134  OYPE      C21           -29.6940834873       -7.3360655238      -16.1487412088  MEMB      134             0.0000000000
     16622       134  OYPE      O22           -30.4063443787       -6.4533767636      -16.6402769634  MEMB      134             0.0000000000
     16623       134  OYPE      C22           -29.5840221203       -7.4888414177      -14.6408136005  MEMB      134             0.0000000000
     16624       134  OYPE      H2R           -28.6624883893       -8.0405868300      -14.3567827187  MEMB      134             0.0000000000
     16625       134  OYPE      H2S           -30.4079680999       -8.1349275837      -14.2693213900  MEMB      134             0.0000000000
     16626       134  OYPE      C3            -28.4352717929       -9.5611200392      -18.8207036699  MEMB      134             0.0000000000
     16627       134  OYPE      HX            -28.2429181026       -9.5091336346      -19.9136897873  MEMB      134             0.0000000000
     16628       134  OYPE      HY            -29.1251610144      -10.4126450785      -18.6382780392  MEMB      134             0.0000000000
     16629       134  OYPE      O31           -27.2428321053      -10.0550412435      -18.2484313729  MEMB      134             0.0000000000
     16630       134  OYPE      C31           -27.2617967104      -10.6570765958      -17.1031580688  MEMB      134             0.0000000000
     16631       134  OYPE      O32           -28.1944106528      -10.8732226935      -16.3566409779  MEMB      134             0.0000000000
     16632       134  OYPE      C32           -25.8710967299      -11.0539906685      -16.7594317411  MEMB      134             0.0000000000
     16633       134  OYPE      H2X           -25.8363976290      -12.1644451159      -16.7566504464  MEMB      134             0.0000000000
     16634       134  OYPE      H2Y           -25.0476950551      -10.8734667568      -17.4831318253  MEMB      134             0.0000000000
     16635       134  OYPE      C23           -29.4821627102       -6.0109647378      -14.1002743131  MEMB      134             0.0000000000
     16636       134  OYPE      H3R           -30.5208887351       -5.6288710626      -14.1970893369  MEMB      134             0.0000000000
     16637       134  OYPE      H3S           -28.8092854974       -5.3906562001      -14.7301752668  MEMB      134             0.0000000000
     16638       134  OYPE      C24           -29.1122587722       -6.0194425459      -12.5533831702  MEMB      134             0.0000000000
     16639       134  OYPE      H4R           -28.0142333651       -6.1848942909      -12.5175098392  MEMB      134             0.0000000000
     16640       134  OYPE      H4S           -29.6884360104       -6.8124931488      -12.0304955563  MEMB      134             0.0000000000
     16641       134  OYPE      C25           -29.4320053636       -4.6513327729      -11.9241200627  MEMB      134             0.0000000000
     16642       134  OYPE      H5R           -30.5422872753       -4.6745598136      -11.8916339209  MEMB      134             0.0000000000
     16643       134  OYPE      H5S           -29.2173080805       -3.8375793976      -12.6494004203  MEMB      134             0.0000000000
     16644       134  OYPE      C26           -28.6757531558       -4.3865146666      -10.5963969001  MEMB      134             0.0000000000
     16645       134  OYPE      H6R           -29.2125378812       -3.6111810853      -10.0089951895  MEMB      134             0.0000000000
     16646       134  OYPE      H6S           -27.6089410426       -4.2178788325      -10.8567709627  MEMB      134             0.0000000000
     16647       134  OYPE      C27           -28.5700266179       -5.6056755283       -9.5933011457  MEMB      134             0.0000000000
     16648       134  OYPE      H7R           -28.0118131815       -6.4284878461      -10.0889811567  MEMB      134             0.0000000000
     16649       134  OYPE      H7S           -29.5354309482       -6.0742233826       -9.3055894244  MEMB      134             0.0000000000
     16650       134  OYPE      C28           -27.7896611003       -5.1961825970       -8.2894038879  MEMB      134             0.0000000000
     16651       134  OYPE      H8R           -27.6461214733       -6.1269687816       -7.7000357403  MEMB      134             0.0000000000
     16652       134  OYPE      H8S           -28.3976439152       -4.4522771978       -7.7314756374  MEMB      134             0.0000000000
     16653       134  OYPE      C29           -26.3908420704       -4.6292723883       -8.4596322814  MEMB      134             0.0000000000
     16654       134  OYPE      H9R           -25.7009577291       -5.1542011180       -9.1367661489  MEMB      134             0.0000000000
     16655       134  OYPE      C210          -25.9643121470       -3.4276578498       -7.9848394576  MEMB      134             0.0000000000
     16656       134  OYPE      H10R          -24.9259701458       -3.1096509429       -8.1601027139  MEMB      134             0.0000000000
     16657       134  OYPE      C211          -26.7640870268       -2.3418844381       -7.2746420618  MEMB      134             0.0000000000
     16658       134  OYPE      H11R          -27.7519067909       -2.0987710073       -7.7212168469  MEMB      134             0.0000000000
     16659       134  OYPE      H11S          -26.1112875618       -1.4446300494       -7.3303915922  MEMB      134             0.0000000000
     16660       134  OYPE      C212          -27.1470812866       -2.7373657508       -5.7904772056  MEMB      134             0.0000000000
     16661       134  OYPE      H12R          -26.2483201240       -2.9746149087       -5.1819859945  MEMB      134             0.0000000000
     16662       134  OYPE      H12S          -27.8150316183       -3.6199618771       -5.8863288468  MEMB      134             0.0000000000
     16663       134  OYPE      C213          -27.9392718066       -1.6584374493       -5.0556561348  MEMB      134             0.0000000000
     16664       134  OYPE      H13R          -28.7635754989       -2.2758870565       -4.6390021777  MEMB      134             0.0000000000
     16665       134  OYPE      H13S          -28.3189506340       -0.8792783181       -5.7506928278  MEMB      134             0.0000000000
     16666       134  OYPE      C214          -27.1468006074       -1.0295576532       -3.8281033910  MEMB      134             0.0000000000
     16667       134  OYPE      H14R          -27.9410469966       -0.3614476795       -3.4317148454  MEMB      134             0.0000000000
     16668       134  OYPE      H14S          -26.3832430253       -0.3649305791       -4.2858933052  MEMB      134             0.0000000000
     16669       134  OYPE      C215          -26.6348678137       -1.9878456077       -2.7043299659  MEMB      134             0.0000000000
     16670       134  OYPE      H15R          -26.1229754261       -1.3589205713       -1.9448949909  MEMB      134             0.0000000000
     16671       134  OYPE      H15S          -25.9695723508       -2.7715302151       -3.1256857772  MEMB      134             0.0000000000
     16672       134  OYPE      C216          -27.8499572035       -2.6802354209       -2.0676761473  MEMB      134             0.0000000000
     16673       134  OYPE      H16R          -28.6617440169       -1.9714041908       -1.7977130454  MEMB      134             0.0000000000
     16674       134  OYPE      H16S          -27.5439362031       -3.0297672369       -1.0584691599  MEMB      134             0.0000000000
     16675       134  OYPE      H16T          -28.1575916880       -3.5312741278       -2.7122048572  MEMB      134             0.0000000000
     16676       134  OYPE      C33           -25.6754725485      -10.5014189920      -15.2974818119  MEMB      134             0.0000000000
     16677       134  OYPE      H3X           -24.7114560269      -10.9173290179      -14.9341463603  MEMB      134             0.0000000000
     16678       134  OYPE      H3Y           -26.5164306432      -10.7458286002      -14.6138340746  MEMB      134             0.0000000000
     16679       134  OYPE      C34           -25.6396428809       -8.9944090491      -15.2069670332  MEMB      134             0.0000000000
     16680       134  OYPE      H4X           -25.0016974610       -8.7051033832      -16.0693176451  MEMB      134             0.0000000000
     16681       134  OYPE      H4Y           -26.5957771085       -8.4777503704      -15.4376006804  MEMB      134             0.0000000000
     16682       134  OYPE      C35           -25.0629053882       -8.5268493475      -13.8492069926  MEMB      134             0.0000000000
     16683       134  OYPE      H5X           -24.9295771164       -7.4264074320      -13.7745586330  MEMB      134             0.0000000000
     16684       134  OYPE      H5Y           -24.0714462040       -9.0281751099      -13.8477482241  MEMB      134             0.0000000000
     16685       134  OYPE      C36           -25.9801261061       -8.7503311252      -12.6253303136  MEMB      134             0.0000000000
     16686       134  OYPE      H6X           -27.0631768716       -8.7605704550      -12.8727515096  MEMB      134             0.0000000000
     16687       134  OYPE      H6Y           -25.8027144689       -9.8048394853      -12.3239036269  MEMB      134             0.0000000000
     16688       134  OYPE      C37           -25.7614887608       -7.9151868583      -11.3698557939  MEMB      134             0.0000000000
     16689       134  OYPE      H7X           -25.8078294177       -6.8223688913      -11.5645926064  MEMB      134             0.0000000000
     16690       134  OYPE      H7Y           -26.2566316441       -8.3166878927      -10.4599379507  MEMB      134             0.0000000000
     16691       134  OYPE      C38           -24.2528902078       -7.9775897015      -10.8092531386  MEMB      134             0.0000000000
     16692       134  OYPE      H8X           -23.4977998348       -7.7071136678      -11.5780196547  MEMB      134             0.0000000000
     16693       134  OYPE      H8Y           -24.1596912372       -7.2360513046       -9.9872092089  MEMB      134             0.0000000000
     16694       134  OYPE      C39           -23.8765302805       -9.3990651536      -10.3738565934  MEMB      134             0.0000000000
     16695       134  OYPE      H9X           -23.4333541910      -10.0518428743      -11.1403265533  MEMB      134             0.0000000000
     16696       134  OYPE      C310          -24.1439215255       -9.9067254461       -9.1874022487  MEMB      134             0.0000000000
     16697       134  OYPE      H10X          -23.8603039047      -10.9180008823       -8.8604713688  MEMB      134             0.0000000000
     16698       134  OYPE      C311          -24.8176546742       -9.1908881224       -8.0338174130  MEMB      134             0.0000000000
     16699       134  OYPE      H11X          -25.1280235397       -8.1524395726       -8.2779836204  MEMB      134             0.0000000000
     16700       134  OYPE      H11Y          -25.6656866438       -9.7786536689       -7.6218770747  MEMB      134             0.0000000000
     16701       134  OYPE      C312          -23.9399008708       -9.1146922606       -6.7551156835  MEMB      134             0.0000000000
     16702       134  OYPE      H12X          -22.9149307516       -8.7272670494       -6.9385789800  MEMB      134             0.0000000000
     16703       134  OYPE      H12Y          -23.7808534478      -10.1814810123       -6.4886835693  MEMB      134             0.0000000000
     16704       134  OYPE      C313          -24.4709295146       -8.2756555912       -5.5657022530  MEMB      134             0.0000000000
     16705       134  OYPE      H13X          -23.8220241863       -8.2913908724       -4.6640402676  MEMB      134             0.0000000000
     16706       134  OYPE      H13Y          -24.5204804488       -7.2232176787       -5.9181801585  MEMB      134             0.0000000000
     16707       134  OYPE      C314          -25.9652978068       -8.6114574413       -5.1198281401  MEMB      134             0.0000000000
     16708       134  OYPE      H14X          -25.9797005971       -9.6567506788       -4.7436954836  MEMB      134             0.0000000000
     16709       134  OYPE      H14Y          -26.4694225042       -8.6071764172       -6.1098587024  MEMB      134             0.0000000000
     16710       134  OYPE      C315          -26.5704115795       -7.5154843168       -4.3260240957  MEMB      134             0.0000000000
     16711       134  OYPE      H15X          -27.6323934898       -7.7955398669       -4.1584417793  MEMB      134             0.0000000000
     16712       134  OYPE      H15Y          -26.5406447526       -6.6032219110       -4.9594371565  MEMB      134             0.0000000000
     16713       134  OYPE      C316          -25.9016873062       -7.2473873437       -2.9183008168  MEMB      134             0.0000000000
     16714       134  OYPE      H16X          -24.8657042868       -6.9332889018       -3.1681051679  MEMB      134             0.0000000000
     16715       134  OYPE      H16Y          -25.7938191203       -8.1282611451       -2.2499105898  MEMB      134             0.0000000000
     16716       134  OYPE      C317          -26.7271841808       -6.3089806329       -1.9787991560  MEMB      134             0.0000000000
     16717       134  OYPE      H17X          -26.7938337292       -5.2437386323       -2.2872440998  MEMB      134             0.0000000000
     16718       134  OYPE      H17Y          -26.1981999914       -6.1961587299       -1.0083509569  MEMB      134             0.0000000000
     16719       134  OYPE      C318          -28.1739413686       -6.7599639439       -1.6883419995  MEMB      134             0.0000000000
     16720       134  OYPE      H18X          -28.2790469852       -7.7185128178       -1.1365640347  MEMB      134             0.0000000000
     16721       134  OYPE      H18Y          -28.6225589154       -5.9257437256       -1.1077052804  MEMB      134             0.0000000000
     16722       134  OYPE      H18Z          -28.7206734375       -6.8892481353       -2.6468253496  MEMB      134             0.0000000000
     16723       135  POPE      N              17.5078162022      -23.8569155022      -18.8122919318  MEMB      135             0.0000000000
     16724       135  POPE      HN1            17.8072857770      -23.8656954751      -17.8163798348  MEMB      135             0.0000000000
     16725       135  POPE      HN2            16.4789945519      -23.8356346483      -18.9628679276  MEMB      135             0.0000000000
     16726       135  POPE      HN3            17.8151766854      -24.6766533257      -19.3736822968  MEMB      135             0.0000000000
     16727       135  POPE      C12            18.1839882984      -22.7179731557      -19.4160735362  MEMB      135             0.0000000000
     16728       135  POPE      H12A           17.8469488096      -22.7391723078      -20.4745044471  MEMB      135             0.0000000000
     16729       135  POPE      H12B           19.2853525214      -22.8517516563      -19.3575845253  MEMB      135             0.0000000000
     16730       135  POPE      C11            17.7427434095      -21.3764266582      -18.9056102974  MEMB      135             0.0000000000
     16731       135  POPE      H11A           18.3876231660      -20.7537531135      -19.5619096225  MEMB      135             0.0000000000
     16732       135  POPE      H11B           18.0842620945      -21.2866419142      -17.8522231208  MEMB      135             0.0000000000
     16733       135  POPE      P              15.8509391058      -19.4494870402      -19.0329464103  MEMB      135             0.0000000000
     16734       135  POPE      O13            14.9580542266      -19.2177595808      -20.1944100735  MEMB      135             0.0000000000
     16735       135  POPE      O14            16.9641662712      -18.4741452804      -18.7243034897  MEMB      135             0.0000000000
     16736       135  POPE      O11            14.8890244606      -19.5967664242      -17.8023786583  MEMB      135             0.0000000000
     16737       135  POPE      O12            16.3895768232      -21.0141047542      -19.1119856015  MEMB      135             0.0000000000
     16738       135  POPE      C1             13.7804526239      -20.5021644850      -17.7512125742  MEMB      135             0.0000000000
     16739       135  POPE      HA             13.9764751717      -21.3507252533      -18.4410246763  MEMB      135             0.0000000000
     16740       135  POPE      HB             12.8653939855      -19.9540367280      -18.0619290872  MEMB      135             0.0000000000
     16741       135  POPE      C2             13.4929075872      -20.9885143713      -16.2787929464  MEMB      135             0.0000000000
     16742       135  POPE      HS             12.5063236444      -21.4986586538      -16.3057350624  MEMB      135             0.0000000000
     16743       135  POPE      O21            13.4740848447      -19.8283870862      -15.4143344908  MEMB      135             0.0000000000
     16744       135  POPE      C21            12.3832340668      -19.3952235375      -14.8986933357  MEMB      135             0.0000000000
     16745       135  POPE      O22            11.2682147077      -19.9381088455      -14.9295813305  MEMB      135             0.0000000000
     16746       135  POPE      C22            12.7419228013      -18.0981223454      -14.1147132409  MEMB      135             0.0000000000
     16747       135  POPE      H2R            11.8316081175      -17.4622105811      -14.0791583240  MEMB      135             0.0000000000
     16748       135  POPE      H2S            13.5248801555      -17.5961446378      -14.7224281279  MEMB      135             0.0000000000
     16749       135  POPE      C3             14.6163419428      -21.9803600992      -15.6969167282  MEMB      135             0.0000000000
     16750       135  POPE      HX             14.7131102253      -22.8426635786      -16.3907392520  MEMB      135             0.0000000000
     16751       135  POPE      HY             14.2521814302      -22.3474233178      -14.7135689905  MEMB      135             0.0000000000
     16752       135  POPE      O31            15.8255718289      -21.2223497481      -15.5159283085  MEMB      135             0.0000000000
     16753       135  POPE      C31            16.7235033052      -21.8341906574      -14.8095803833  MEMB      135             0.0000000000
     16754       135  POPE      O32            16.7797611562      -22.9729172730      -14.4354049141  MEMB      135             0.0000000000
     16755       135  POPE      C32            17.8792065350      -20.7833654734      -14.5437932733  MEMB      135             0.0000000000
     16756       135  POPE      H2X            17.8034062489      -20.3844245275      -13.5096650817  MEMB      135             0.0000000000
     16757       135  POPE      H2Y            17.9097932686      -19.9187210427      -15.2407692822  MEMB      135             0.0000000000
     16758       135  POPE      C23            13.3192633512      -18.4395822458      -12.7201019600  MEMB      135             0.0000000000
     16759       135  POPE      H3R            12.8798054570      -19.3951624174      -12.3622416633  MEMB      135             0.0000000000
     16760       135  POPE      H3S            13.1287902567      -17.6158406809      -11.9993450834  MEMB      135             0.0000000000
     16761       135  POPE      C24            14.8227577231      -18.7671158755      -12.8479742940  MEMB      135             0.0000000000
     16762       135  POPE      H4R            15.4087611880      -17.8702006281      -13.1420216180  MEMB      135             0.0000000000
     16763       135  POPE      H4S            14.9237588690      -19.3781528056      -13.7703372034  MEMB      135             0.0000000000
     16764       135  POPE      C25            15.4874071609      -19.3669227039      -11.6077163883  MEMB      135             0.0000000000
     16765       135  POPE      H5R            15.2755341682      -18.8643706016      -10.6397946544  MEMB      135             0.0000000000
     16766       135  POPE      H5S            16.5585172883      -19.1754847538      -11.8322059266  MEMB      135             0.0000000000
     16767       135  POPE      C26            15.3264461617      -20.8414017057      -11.4223051251  MEMB      135             0.0000000000
     16768       135  POPE      H6R            16.2665255385      -21.4031201418      -11.2351042429  MEMB      135             0.0000000000
     16769       135  POPE      H6S            14.7982913565      -21.2364824454      -12.3163321454  MEMB      135             0.0000000000
     16770       135  POPE      C27            14.4026012377      -21.2239211772      -10.2893103730  MEMB      135             0.0000000000
     16771       135  POPE      H7R            14.1617369032      -22.2905494717      -10.4858038105  MEMB      135             0.0000000000
     16772       135  POPE      H7S            13.4521793518      -20.6489760432      -10.3106998511  MEMB      135             0.0000000000
     16773       135  POPE      C28            14.9760751201      -21.0575205536       -8.8747519572  MEMB      135             0.0000000000
     16774       135  POPE      H8R            14.1305371435      -21.1209901112       -8.1568666202  MEMB      135             0.0000000000
     16775       135  POPE      H8S            15.3312543491      -20.0072052225       -8.8039964286  MEMB      135             0.0000000000
     16776       135  POPE      C29            16.0951133229      -22.0206681800       -8.4921156119  MEMB      135             0.0000000000
     16777       135  POPE      H91            16.9723234495      -21.7975342573       -9.1171873405  MEMB      135             0.0000000000
     16778       135  POPE      C210           16.1871049685      -22.9973391402       -7.5604937908  MEMB      135             0.0000000000
     16779       135  POPE      H101           17.1334881968      -23.5254950630       -7.3723184385  MEMB      135             0.0000000000
     16780       135  POPE      C211           15.1788321976      -23.3939771520       -6.5897020446  MEMB      135             0.0000000000
     16781       135  POPE      H11R           15.2768054303      -24.4988283358       -6.5262465983  MEMB      135             0.0000000000
     16782       135  POPE      H11S           14.1408234697      -23.2526579313       -6.9596852024  MEMB      135             0.0000000000
     16783       135  POPE      C212           15.2439466952      -22.7388879088       -5.2777572153  MEMB      135             0.0000000000
     16784       135  POPE      H12R           16.1476449164      -22.8822107433       -4.6475910702  MEMB      135             0.0000000000
     16785       135  POPE      H12S           14.3992069117      -23.2533036855       -4.7716817861  MEMB      135             0.0000000000
     16786       135  POPE      C213           14.9270859643      -21.2648232467       -5.3002733136  MEMB      135             0.0000000000
     16787       135  POPE      H13R           13.9050687914      -21.1253126718       -5.7129945802  MEMB      135             0.0000000000
     16788       135  POPE      H13S           15.6351647015      -20.6975360766       -5.9414685176  MEMB      135             0.0000000000
     16789       135  POPE      C214           14.8758242223      -20.5576949158       -3.9582699868  MEMB      135             0.0000000000
     16790       135  POPE      H14R           15.8907417745      -20.4165311047       -3.5289266099  MEMB      135             0.0000000000
     16791       135  POPE      H14S           14.4621423077      -21.1983833204       -3.1503678814  MEMB      135             0.0000000000
     16792       135  POPE      C215           14.1094897445      -19.1831565659       -3.9636646781  MEMB      135             0.0000000000
     16793       135  POPE      H15R           13.0566113349      -19.5294297244       -4.0402332545  MEMB      135             0.0000000000
     16794       135  POPE      H15S           14.3754283505      -18.6078209627       -4.8761259063  MEMB      135             0.0000000000
     16795       135  POPE      C216           14.3765957487      -18.2456237735       -2.7826648775  MEMB      135             0.0000000000
     16796       135  POPE      H16R           13.8084876102      -17.3045404681       -2.9437128332  MEMB      135             0.0000000000
     16797       135  POPE      H16S           15.4425943363      -17.9458200920       -2.8725867516  MEMB      135             0.0000000000
     16798       135  POPE      C217           14.3259510780      -18.6216489348       -1.2638787020  MEMB      135             0.0000000000
     16799       135  POPE      H17R           15.1162602059      -19.3934229554       -1.1451461208  MEMB      135             0.0000000000
     16800       135  POPE      H17S           13.3801006561      -19.1637396678       -1.0498098629  MEMB      135             0.0000000000
     16801       135  POPE      C218           14.5788526138      -17.4216414066       -0.2651530978  MEMB      135             0.0000000000
     16802       135  POPE      H18R           15.6386573232      -17.0960173000       -0.1937121347  MEMB      135             0.0000000000
     16803       135  POPE      H18S           14.2626210243      -17.6152313199        0.7821485574  MEMB      135             0.0000000000
     16804       135  POPE      H18T           14.0070491878      -16.5397282047       -0.6251407861  MEMB      135             0.0000000000
     16805       135  POPE      C33            19.2936077267      -21.4872235163      -14.6402162593  MEMB      135             0.0000000000
     16806       135  POPE      H3X            19.3521555506      -22.3367437205      -15.3538046098  MEMB      135             0.0000000000
     16807       135  POPE      H3Y            19.4696737043      -22.0218839618      -13.6823745962  MEMB      135             0.0000000000
     16808       135  POPE      C34            20.4425067243      -20.5176763868      -14.9755506170  MEMB      135             0.0000000000
     16809       135  POPE      H4X            20.3281738477      -20.2275370631      -16.0418844562  MEMB      135             0.0000000000
     16810       135  POPE      H4Y            21.4312900760      -21.0085347175      -14.8503026742  MEMB      135             0.0000000000
     16811       135  POPE      C35            20.5540674527      -19.2566619645      -14.0302725237  MEMB      135             0.0000000000
     16812       135  POPE      H5X            19.6920403620      -18.5641449251      -14.1382102444  MEMB      135             0.0000000000
     16813       135  POPE      H5Y            21.4653638755      -18.6431021814      -14.1958164895  MEMB      135             0.0000000000
     16814       135  POPE      C36            20.6209932507      -19.6042900820      -12.5676050666  MEMB      135             0.0000000000
     16815       135  POPE      H6X            21.5786542865      -20.1456839367      -12.4123672643  MEMB      135             0.0000000000
     16816       135  POPE      H6Y            19.7401395703      -20.1544104995      -12.1729082331  MEMB      135             0.0000000000
     16817       135  POPE      C37            20.7439452077      -18.3340674520      -11.6966333683  MEMB      135             0.0000000000
     16818       135  POPE      H7X            19.7481664701      -17.8822220916      -11.8930546284  MEMB      135             0.0000000000
     16819       135  POPE      H7Y            21.5175857134      -17.6445707984      -12.0971276048  MEMB      135             0.0000000000
     16820       135  POPE      C38            20.9721267857      -18.6434990690      -10.2251146644  MEMB      135             0.0000000000
     16821       135  POPE      H8X            21.2712753538      -17.6893712745       -9.7408919289  MEMB      135             0.0000000000
     16822       135  POPE      H8Y            21.8445637865      -19.3221153907      -10.1126225504  MEMB      135             0.0000000000
     16823       135  POPE      C39            19.7101188375      -19.2598995134       -9.6074886722  MEMB      135             0.0000000000
     16824       135  POPE      H9X            19.5512922245      -20.3252711846       -9.8796630022  MEMB      135             0.0000000000
     16825       135  POPE      H9Y            18.7882295922      -18.7765409642       -9.9958261576  MEMB      135             0.0000000000
     16826       135  POPE      C310           19.8474514151      -19.1153589003       -8.0900077979  MEMB      135             0.0000000000
     16827       135  POPE      H10X           20.1595770121      -18.0813000995       -7.8299671129  MEMB      135             0.0000000000
     16828       135  POPE      H10Y           20.5982675712      -19.7896086542       -7.6252681271  MEMB      135             0.0000000000
     16829       135  POPE      C311           18.5284903412      -19.4361416064       -7.3186032114  MEMB      135             0.0000000000
     16830       135  POPE      H11X           18.2929071808      -20.5106280930       -7.4744884369  MEMB      135             0.0000000000
     16831       135  POPE      H11Y           17.6446822906      -18.8409976100       -7.6332583650  MEMB      135             0.0000000000
     16832       135  POPE      C312           18.5885173097      -19.4299433731       -5.7659915849  MEMB      135             0.0000000000
     16833       135  POPE      H12X           19.5275721535      -19.9439873660       -5.4689131208  MEMB      135             0.0000000000
     16834       135  POPE      H12Y           17.7029215223      -19.8680545511       -5.2579561518  MEMB      135             0.0000000000
     16835       135  POPE      C313           18.7170874495      -17.9844646850       -5.1055266897  MEMB      135             0.0000000000
     16836       135  POPE      H13X           19.4362835616      -17.3649219401       -5.6828001538  MEMB      135             0.0000000000
     16837       135  POPE      H13Y           19.0482090901      -18.1741796076       -4.0621244128  MEMB      135             0.0000000000
     16838       135  POPE      C314           17.3076176875      -17.2356800286       -5.2838250969  MEMB      135             0.0000000000
     16839       135  POPE      H14X           16.5530372623      -17.8305202597       -4.7260659261  MEMB      135             0.0000000000
     16840       135  POPE      H14Y           17.0830797204      -17.3247677536       -6.3682451461  MEMB      135             0.0000000000
     16841       135  POPE      C315           17.0921203481      -15.8120409448       -4.7915880578  MEMB      135             0.0000000000
     16842       135  POPE      H15X           16.0261474745      -15.5083127957       -4.8675630601  MEMB      135             0.0000000000
     16843       135  POPE      H15Y           17.7940111432      -15.1687008862       -5.3641118015  MEMB      135             0.0000000000
     16844       135  POPE      C316           17.4979770675      -15.6694701862       -3.3432423807  MEMB      135             0.0000000000
     16845       135  POPE      H16X           16.9152111440      -16.3309735588       -2.6671377896  MEMB      135             0.0000000000
     16846       135  POPE      H16Y           17.2596471790      -14.6467079328       -2.9806435368  MEMB      135             0.0000000000
     16847       135  POPE      H16Z           18.5466219251      -16.0002501200       -3.1843422207  MEMB      135             0.0000000000
     16848       136  OYPE      N              -3.8442222892       24.2648214443      -21.1099854563  MEMB      136             0.0000000000
     16849       136  OYPE      HN1            -3.7467389837       23.5052548550      -20.4063124506  MEMB      136             0.0000000000
     16850       136  OYPE      HN2            -4.8098329426       24.1975998147      -21.4903503109  MEMB      136             0.0000000000
     16851       136  OYPE      HN3            -3.2415503953       24.1414162064      -21.9485305357  MEMB      136             0.0000000000
     16852       136  OYPE      C12            -3.4773106829       25.6239625710      -20.4240587768  MEMB      136             0.0000000000
     16853       136  OYPE      H12A           -3.7556903274       26.3960657501      -21.1728460873  MEMB      136             0.0000000000
     16854       136  OYPE      H12B           -2.4208448234       25.5951446354      -20.0814645650  MEMB      136             0.0000000000
     16855       136  OYPE      C11            -4.2766870785       25.8654189103      -19.1372008593  MEMB      136             0.0000000000
     16856       136  OYPE      H11A           -3.8941493667       26.8112004324      -18.6973335455  MEMB      136             0.0000000000
     16857       136  OYPE      H11B           -4.0935991408       25.0432639754      -18.4127279409  MEMB      136             0.0000000000
     16858       136  OYPE      P              -6.5870764878       26.6937079007      -18.2434856296  MEMB      136             0.0000000000
     16859       136  OYPE      O13            -7.8587620307       26.9713878987      -18.8801090352  MEMB      136             0.0000000000
     16860       136  OYPE      O14            -5.7784677530       27.8160108744      -17.6238410683  MEMB      136             0.0000000000
     16861       136  OYPE      O11            -6.7804261108       25.5254668078      -17.1642754130  MEMB      136             0.0000000000
     16862       136  OYPE      O12            -5.6436848008       26.0520331455      -19.4170437500  MEMB      136             0.0000000000
     16863       136  OYPE      C1             -7.4010201528       24.2781758836      -17.6188722356  MEMB      136             0.0000000000
     16864       136  OYPE      HA             -6.8577168766       24.0024396189      -18.5479104522  MEMB      136             0.0000000000
     16865       136  OYPE      HB             -8.4727337977       24.4368208463      -17.8650076332  MEMB      136             0.0000000000
     16866       136  OYPE      C2             -7.3425377874       23.1649742482      -16.4816291659  MEMB      136             0.0000000000
     16867       136  OYPE      HS             -8.1148265476       22.4187074973      -16.7661936851  MEMB      136             0.0000000000
     16868       136  OYPE      O21            -7.6648652684       23.7241009167      -15.1744543199  MEMB      136             0.0000000000
     16869       136  OYPE      C21            -9.0229598488       24.0410551673      -15.0712760537  MEMB      136             0.0000000000
     16870       136  OYPE      O22            -9.8673666602       23.8662957368      -15.9320083432  MEMB      136             0.0000000000
     16871       136  OYPE      C22            -9.2613680330       24.7328076176      -13.7609015760  MEMB      136             0.0000000000
     16872       136  OYPE      H2R            -9.3503608484       24.0828720515      -12.8642491937  MEMB      136             0.0000000000
     16873       136  OYPE      H2S           -10.0914600998       25.4709435790      -13.7814702255  MEMB      136             0.0000000000
     16874       136  OYPE      C3             -5.8816346324       22.5573351835      -16.4435649450  MEMB      136             0.0000000000
     16875       136  OYPE      HX             -5.6322078724       21.9919797821      -17.3668637452  MEMB      136             0.0000000000
     16876       136  OYPE      HY             -5.6747211655       21.8015920196      -15.6559356911  MEMB      136             0.0000000000
     16877       136  OYPE      O31            -4.9463319011       23.6119863740      -16.3135280901  MEMB      136             0.0000000000
     16878       136  OYPE      C31            -4.4871853934       23.8505208161      -15.1659658320  MEMB      136             0.0000000000
     16879       136  OYPE      O32            -4.5498713755       23.1585493430      -14.1601058585  MEMB      136             0.0000000000
     16880       136  OYPE      C32            -3.9027155389       25.1900545049      -15.2533569977  MEMB      136             0.0000000000
     16881       136  OYPE      H2X            -3.1409306443       25.1918883214      -16.0620604651  MEMB      136             0.0000000000
     16882       136  OYPE      H2Y            -4.7510522387       25.8529966714      -15.5274984828  MEMB      136             0.0000000000
     16883       136  OYPE      C23            -7.9769320188       25.5858334309      -13.3994254390  MEMB      136             0.0000000000
     16884       136  OYPE      H3R            -7.7989229429       26.4222482583      -14.1086811750  MEMB      136             0.0000000000
     16885       136  OYPE      H3S            -7.0527942575       24.9719177515      -13.3411338917  MEMB      136             0.0000000000
     16886       136  OYPE      C24            -7.9050819898       26.1881526958      -11.9867691281  MEMB      136             0.0000000000
     16887       136  OYPE      H4R            -8.4094589764       27.1773921767      -11.9503024398  MEMB      136             0.0000000000
     16888       136  OYPE      H4S            -6.8415909491       26.5081341691      -11.9564397081  MEMB      136             0.0000000000
     16889       136  OYPE      C25            -8.4322250328       25.3247918022      -10.8114972003  MEMB      136             0.0000000000
     16890       136  OYPE      H5R            -7.8721430953       24.3654230757      -10.8270172677  MEMB      136             0.0000000000
     16891       136  OYPE      H5S            -9.4768810491       25.0054572846      -11.0140802461  MEMB      136             0.0000000000
     16892       136  OYPE      C26            -8.3375806970       25.9991876718       -9.4113974458  MEMB      136             0.0000000000
     16893       136  OYPE      H6R            -8.5868825690       25.2023631967       -8.6784308236  MEMB      136             0.0000000000
     16894       136  OYPE      H6S            -8.9786051740       26.8848513308       -9.2138920214  MEMB      136             0.0000000000
     16895       136  OYPE      C27            -6.9132345806       26.4801984337       -9.2141263779  MEMB      136             0.0000000000
     16896       136  OYPE      H7R            -6.7355869426       27.2591642792       -9.9861198856  MEMB      136             0.0000000000
     16897       136  OYPE      H7S            -6.2137506872       25.7142649209       -9.6121076297  MEMB      136             0.0000000000
     16898       136  OYPE      C28            -6.5638562060       26.9315088763       -7.7582187992  MEMB      136             0.0000000000
     16899       136  OYPE      H8R            -5.4758881278       27.1557636132       -7.7770992943  MEMB      136             0.0000000000
     16900       136  OYPE      H8S            -6.6803947670       25.9988394873       -7.1658783581  MEMB      136             0.0000000000
     16901       136  OYPE      C29            -7.4308686527       28.0762379007       -7.2615643471  MEMB      136             0.0000000000
     16902       136  OYPE      H9R            -8.4885091818       27.7766824853       -7.3023485185  MEMB      136             0.0000000000
     16903       136  OYPE      C210           -7.1001869504       29.3058029170       -6.8333795683  MEMB      136             0.0000000000
     16904       136  OYPE      H10R           -7.9349977862       29.9198534832       -6.4645531762  MEMB      136             0.0000000000
     16905       136  OYPE      C211           -5.7297743375       29.9090698817       -6.7209919948  MEMB      136             0.0000000000
     16906       136  OYPE      H11R           -5.8572806136       30.9363802422       -7.1243483890  MEMB      136             0.0000000000
     16907       136  OYPE      H11S           -4.8647239161       29.3590896934       -7.1493970964  MEMB      136             0.0000000000
     16908       136  OYPE      C212           -5.2410385539       30.1802510192       -5.2253084219  MEMB      136             0.0000000000
     16909       136  OYPE      H12R           -6.0296951112       30.7891224868       -4.7337627047  MEMB      136             0.0000000000
     16910       136  OYPE      H12S           -4.3960652103       30.8838672659       -5.3842602073  MEMB      136             0.0000000000
     16911       136  OYPE      C213           -4.9125975777       28.9279100794       -4.4181904133  MEMB      136             0.0000000000
     16912       136  OYPE      H13R           -3.9477927038       28.4984064741       -4.7631534282  MEMB      136             0.0000000000
     16913       136  OYPE      H13S           -5.7689705380       28.2235981384       -4.4881265098  MEMB      136             0.0000000000
     16914       136  OYPE      C214           -4.7498614052       29.1846404245       -2.9310110170  MEMB      136             0.0000000000
     16915       136  OYPE      H14R           -5.7078541479       29.5666746739       -2.5179482524  MEMB      136             0.0000000000
     16916       136  OYPE      H14S           -4.0820534139       30.0724332886       -2.9176813993  MEMB      136             0.0000000000
     16917       136  OYPE      C215           -4.2146227551       27.9998832179       -2.1970687169  MEMB      136             0.0000000000
     16918       136  OYPE      H15R           -4.6760368165       27.0223385442       -2.4536327632  MEMB      136             0.0000000000
     16919       136  OYPE      H15S           -4.3889629152       28.1307976574       -1.1076713773  MEMB      136             0.0000000000
     16920       136  OYPE      C216           -2.6758129164       27.8117829604       -2.2794303675  MEMB      136             0.0000000000
     16921       136  OYPE      H16R           -2.4296364105       27.2240342894       -3.1895241569  MEMB      136             0.0000000000
     16922       136  OYPE      H16S           -2.3872019994       27.1250898705       -1.4551266828  MEMB      136             0.0000000000
     16923       136  OYPE      H16T           -2.1308591532       28.7798543841       -2.2658767566  MEMB      136             0.0000000000
     16924       136  OYPE      C33            -3.1803271896       25.7653328714      -14.0362332556  MEMB      136             0.0000000000
     16925       136  OYPE      H3X            -2.5689588155       26.5904088967      -14.4602608289  MEMB      136             0.0000000000
     16926       136  OYPE      H3Y            -2.5741892658       24.9625818573      -13.5645251369  MEMB      136             0.0000000000
     16927       136  OYPE      C34            -4.1899249324       26.4208519935      -13.0973113697  MEMB      136             0.0000000000
     16928       136  OYPE      H4X            -4.5127139778       27.4131434238      -13.4787377992  MEMB      136             0.0000000000
     16929       136  OYPE      H4Y            -4.9462788287       25.6456689686      -12.8496404736  MEMB      136             0.0000000000
     16930       136  OYPE      C35            -3.6136772603       26.8028632860      -11.7447913863  MEMB      136             0.0000000000
     16931       136  OYPE      H5X            -4.3518378693       27.4363646897      -11.2080271436  MEMB      136             0.0000000000
     16932       136  OYPE      H5Y            -2.6804387974       27.3873705999      -11.8922301338  MEMB      136             0.0000000000
     16933       136  OYPE      C36            -3.1596051680       25.5839946403      -10.8673657824  MEMB      136             0.0000000000
     16934       136  OYPE      H6X            -3.7401944550       24.6496515662      -11.0230579015  MEMB      136             0.0000000000
     16935       136  OYPE      H6Y            -2.1484896187       25.3162228754      -11.2418848642  MEMB      136             0.0000000000
     16936       136  OYPE      C37            -3.0461812451       25.9141308634       -9.3326677756  MEMB      136             0.0000000000
     16937       136  OYPE      H7X            -2.5309945225       26.8962724642       -9.2670799926  MEMB      136             0.0000000000
     16938       136  OYPE      H7Y            -4.0295755235       26.0324395179       -8.8294186683  MEMB      136             0.0000000000
     16939       136  OYPE      C38            -2.3033920365       24.7701030833       -8.5095287855  MEMB      136             0.0000000000
     16940       136  OYPE      H8X            -2.8565710501       23.8289175465       -8.7156450203  MEMB      136             0.0000000000
     16941       136  OYPE      H8Y            -1.3480385800       24.7128177582       -9.0737445791  MEMB      136             0.0000000000
     16942       136  OYPE      C39            -2.0252324395       25.0955689778       -7.0386767398  MEMB      136             0.0000000000
     16943       136  OYPE      H9X            -1.4234117148       26.0129551610       -6.9598438464  MEMB      136             0.0000000000
     16944       136  OYPE      C310           -2.4221020028       24.4485252684       -5.9329250720  MEMB      136             0.0000000000
     16945       136  OYPE      H10X           -2.0336282661       24.7543076545       -4.9502825714  MEMB      136             0.0000000000
     16946       136  OYPE      C311           -3.3038449970       23.1776433185       -5.8856330578  MEMB      136             0.0000000000
     16947       136  OYPE      H11X           -3.9513023090       23.0383760339       -6.7776667253  MEMB      136             0.0000000000
     16948       136  OYPE      H11Y           -2.6420693683       22.3031836715       -5.7076041212  MEMB      136             0.0000000000
     16949       136  OYPE      C312           -4.2987879267       23.0360827805       -4.6865595061  MEMB      136             0.0000000000
     16950       136  OYPE      H12X           -3.8029753808       23.2497799605       -3.7155672826  MEMB      136             0.0000000000
     16951       136  OYPE      H12Y           -4.8194212317       22.0547235857       -4.6725600911  MEMB      136             0.0000000000
     16952       136  OYPE      C313           -5.4199479547       24.1359302303       -4.8456660820  MEMB      136             0.0000000000
     16953       136  OYPE      H13X           -4.9720720032       25.0912768114       -5.1935760920  MEMB      136             0.0000000000
     16954       136  OYPE      H13Y           -6.0985710345       23.7540241027       -5.6380921523  MEMB      136             0.0000000000
     16955       136  OYPE      C314           -6.1863608477       24.4583149347       -3.5643283342  MEMB      136             0.0000000000
     16956       136  OYPE      H14X           -5.5554578544       24.8044545784       -2.7178824488  MEMB      136             0.0000000000
     16957       136  OYPE      H14Y           -6.5430204094       23.4520560848       -3.2568259053  MEMB      136             0.0000000000
     16958       136  OYPE      C315           -7.3921760189       25.4304671149       -3.7693492955  MEMB      136             0.0000000000
     16959       136  OYPE      H15X           -7.9980371312       25.0667103756       -4.6266327445  MEMB      136             0.0000000000
     16960       136  OYPE      H15Y           -6.8185731917       26.3310993355       -4.0762080938  MEMB      136             0.0000000000
     16961       136  OYPE      C316           -8.1743922834       25.6029732538       -2.4749388391  MEMB      136             0.0000000000
     16962       136  OYPE      H16X           -8.3329688461       24.6377827850       -1.9480785907  MEMB      136             0.0000000000
     16963       136  OYPE      H16Y           -9.1638812250       25.9995938918       -2.7878685631  MEMB      136             0.0000000000
     16964       136  OYPE      C317           -7.5682392817       26.6827900979       -1.5567600626  MEMB      136             0.0000000000
     16965       136  OYPE      H17X           -7.4685904995       27.6060254377       -2.1667000076  MEMB      136             0.0000000000
     16966       136  OYPE      H17Y           -6.5722500491       26.3084646782       -1.2370624853  MEMB      136             0.0000000000
     16967       136  OYPE      C318           -8.4688813970       26.9764889707       -0.3391731997  MEMB      136             0.0000000000
     16968       136  OYPE      H18X           -8.9043691979       26.0602258013        0.1137430763  MEMB      136             0.0000000000
     16969       136  OYPE      H18Y           -7.7794436854       27.5117989657        0.3481702520  MEMB      136             0.0000000000
     16970       136  OYPE      H18Z           -9.3007397170       27.6915282085       -0.5153844856  MEMB      136             0.0000000000
     16971       137  PMPE      N             -10.5015033676      -22.9972643754      -21.2421550455  MEMB      137             0.0000000000
     16972       137  PMPE      HN1           -11.4437089229      -22.8908174004      -20.8149338699  MEMB      137             0.0000000000
     16973       137  PMPE      HN2            -9.9048605532      -22.1952613171      -20.9550861255  MEMB      137             0.0000000000
     16974       137  PMPE      HN3           -10.5961718591      -23.0303896045      -22.2773074667  MEMB      137             0.0000000000
     16975       137  PMPE      C12            -9.9638584564      -24.2981680885      -20.7459729257  MEMB      137             0.0000000000
     16976       137  PMPE      H12A           -9.3957040785      -24.7822633936      -21.5688782850  MEMB      137             0.0000000000
     16977       137  PMPE      H12B          -10.8538445178      -24.9631761628      -20.7491312378  MEMB      137             0.0000000000
     16978       137  PMPE      C11            -9.0349227246      -24.1339560326      -19.5271128424  MEMB      137             0.0000000000
     16979       137  PMPE      H11A           -9.5086111222      -23.7521690132      -18.5975005827  MEMB      137             0.0000000000
     16980       137  PMPE      H11B           -8.2629219332      -23.3688836757      -19.7573302566  MEMB      137             0.0000000000
     16981       137  PMPE      P              -8.5409333611      -26.2550227230      -18.0919743648  MEMB      137             0.0000000000
     16982       137  PMPE      O13            -7.4442538263      -27.2241932402      -17.9353635583  MEMB      137             0.0000000000
     16983       137  PMPE      O14            -9.9789860928      -26.7405848245      -18.2050392007  MEMB      137             0.0000000000
     16984       137  PMPE      O11            -8.5062374604      -25.1853789253      -16.9501050350  MEMB      137             0.0000000000
     16985       137  PMPE      O12            -8.1865811905      -25.2815693889      -19.3022770272  MEMB      137             0.0000000000
     16986       137  PMPE      C1             -7.2595606716      -25.0461289069      -16.1328909473  MEMB      137             0.0000000000
     16987       137  PMPE      HA             -7.2836841301      -24.0829624029      -15.5796737938  MEMB      137             0.0000000000
     16988       137  PMPE      HB             -6.3785820445      -24.9858475222      -16.8071044893  MEMB      137             0.0000000000
     16989       137  PMPE      C2             -7.1492876127      -26.1028791031      -14.9653767475  MEMB      137             0.0000000000
     16990       137  PMPE      HS             -6.8640691866      -27.1194803140      -15.3110546024  MEMB      137             0.0000000000
     16991       137  PMPE      O21            -8.4856715496      -26.1782325173      -14.3449185470  MEMB      137             0.0000000000
     16992       137  PMPE      C21            -8.6399141149      -27.2294293101      -13.5611194663  MEMB      137             0.0000000000
     16993       137  PMPE      O22            -7.7821020817      -28.0866032663      -13.3624795933  MEMB      137             0.0000000000
     16994       137  PMPE      C22           -10.0388873859      -27.1026306059      -12.9305426949  MEMB      137             0.0000000000
     16995       137  PMPE      H2R           -10.8917352116      -27.1574041256      -13.6404523335  MEMB      137             0.0000000000
     16996       137  PMPE      H2S           -10.1453593164      -26.1042540438      -12.4549073365  MEMB      137             0.0000000000
     16997       137  PMPE      C3             -6.1200935175      -25.6565638434      -13.8841142237  MEMB      137             0.0000000000
     16998       137  PMPE      HX             -5.3143777212      -25.1816565501      -14.4837860024  MEMB      137             0.0000000000
     16999       137  PMPE      HY             -5.7957462466      -26.5378975626      -13.2905059798  MEMB      137             0.0000000000
     17000       137  PMPE      O31            -6.5461298606      -24.6628603360      -12.9677165215  MEMB      137             0.0000000000
     17001       137  PMPE      C31            -6.6259449740      -25.0487370591      -11.6618042641  MEMB      137             0.0000000000
     17002       137  PMPE      O32            -6.4422951615      -26.1361551379      -11.1702468447  MEMB      137             0.0000000000
     17003       137  PMPE      C32            -7.2782587845      -23.7843085989      -10.9333287284  MEMB      137             0.0000000000
     17004       137  PMPE      H2X            -7.9762010029      -23.4043429947      -11.7097460705  MEMB      137             0.0000000000
     17005       137  PMPE      H2Y            -6.4047082127      -23.1136143424      -10.7870432158  MEMB      137             0.0000000000
     17006       137  PMPE      C23           -10.2621604085      -28.2569123158      -11.9551147947  MEMB      137             0.0000000000
     17007       137  PMPE      H3R            -9.5987096411      -28.3519563214      -11.0690446744  MEMB      137             0.0000000000
     17008       137  PMPE      H3S           -10.0493191485      -29.1297648071      -12.6086804630  MEMB      137             0.0000000000
     17009       137  PMPE      C24           -11.6906317009      -28.3914931329      -11.4066696067  MEMB      137             0.0000000000
     17010       137  PMPE      H4R           -12.3852349904      -28.0971208738      -12.2222624996  MEMB      137             0.0000000000
     17011       137  PMPE      H4S           -11.7122707208      -27.6599860531      -10.5707570089  MEMB      137             0.0000000000
     17012       137  PMPE      C25           -11.9028775225      -29.7819367653      -10.7824576198  MEMB      137             0.0000000000
     17013       137  PMPE      H5R           -11.3204061461      -30.4647209164      -11.4373270363  MEMB      137             0.0000000000
     17014       137  PMPE      H5S           -12.9639550757      -30.0826000682      -10.9167583858  MEMB      137             0.0000000000
     17015       137  PMPE      C26           -11.4529085702      -29.9844151102       -9.3213846404  MEMB      137             0.0000000000
     17016       137  PMPE      H6R           -10.4521910871      -29.5281971014       -9.1640602248  MEMB      137             0.0000000000
     17017       137  PMPE      H6S           -11.4777484877      -30.9991659437       -8.8697369756  MEMB      137             0.0000000000
     17018       137  PMPE      C27           -12.3557320523      -29.3347315280       -8.2392403147  MEMB      137             0.0000000000
     17019       137  PMPE      H7R           -13.1475755490      -30.1110805374       -8.1715065862  MEMB      137             0.0000000000
     17020       137  PMPE      H7S           -12.8320563580      -28.3793041019       -8.5468026979  MEMB      137             0.0000000000
     17021       137  PMPE      C28           -11.7579544600      -29.0019326173       -6.8516060794  MEMB      137             0.0000000000
     17022       137  PMPE      H8R           -11.1581171315      -29.8260483635       -6.4096231585  MEMB      137             0.0000000000
     17023       137  PMPE      H8S           -12.6763289039      -28.7973470166       -6.2607978610  MEMB      137             0.0000000000
     17024       137  PMPE      C29           -10.9993698210      -27.6855605084       -6.9876050985  MEMB      137             0.0000000000
     17025       137  PMPE      H9R           -11.6387834903      -26.8439712635       -7.3299484159  MEMB      137             0.0000000000
     17026       137  PMPE      C217           -9.5265265800      -27.7649673095       -7.2500060767  MEMB      137             0.0000000000
     17027       137  PMPE      H17R           -9.2873096329      -27.1025494579       -8.0727258232  MEMB      137             0.0000000000
     17028       137  PMPE      H17S           -8.9941521243      -28.6848145255       -7.0418047828  MEMB      137             0.0000000000
     17029       137  PMPE      C210          -10.0184869149      -27.0106226089       -6.0069959737  MEMB      137             0.0000000000
     17030       137  PMPE      H10R          -10.1799615474      -25.9122354303       -5.9646565281  MEMB      137             0.0000000000
     17031       137  PMPE      C211           -9.8168224475      -27.7446229673       -4.6833059496  MEMB      137             0.0000000000
     17032       137  PMPE      H11R           -9.1192476741      -27.1196414195       -4.0857198043  MEMB      137             0.0000000000
     17033       137  PMPE      H11S           -9.3810694466      -28.7554970619       -4.8335510376  MEMB      137             0.0000000000
     17034       137  PMPE      C212          -11.0084016166      -28.0892648299       -3.7301186842  MEMB      137             0.0000000000
     17035       137  PMPE      H12R          -10.5992815304      -28.5099268554       -2.7867278361  MEMB      137             0.0000000000
     17036       137  PMPE      H12S          -11.6719116192      -28.8812032583       -4.1386633560  MEMB      137             0.0000000000
     17037       137  PMPE      C213          -11.7029174151      -26.8212528486       -3.3678126079  MEMB      137             0.0000000000
     17038       137  PMPE      H13R          -11.8874112251      -26.1747622438       -4.2523084630  MEMB      137             0.0000000000
     17039       137  PMPE      H13S          -11.0374245838      -26.2150891437       -2.7166553507  MEMB      137             0.0000000000
     17040       137  PMPE      C214          -13.0902231174      -27.1089688551       -2.7509358828  MEMB      137             0.0000000000
     17041       137  PMPE      H14R          -13.5151519581      -28.0917459433       -3.0474231669  MEMB      137             0.0000000000
     17042       137  PMPE      H14S          -13.7342098889      -26.2743400899       -3.1016441754  MEMB      137             0.0000000000
     17043       137  PMPE      C215          -13.0305125791      -27.1160694629       -1.1287791188  MEMB      137             0.0000000000
     17044       137  PMPE      H15R          -12.6289099441      -26.1020351354       -0.9171879186  MEMB      137             0.0000000000
     17045       137  PMPE      H15S          -12.2570831912      -27.8794002700       -0.8975774266  MEMB      137             0.0000000000
     17046       137  PMPE      C216          -14.3797224070      -27.3030349769       -0.5250061206  MEMB      137             0.0000000000
     17047       137  PMPE      H16R          -14.2096666415      -27.3374295131        0.5723628817  MEMB      137             0.0000000000
     17048       137  PMPE      H16S          -15.0227579627      -26.4046551885       -0.6422216497  MEMB      137             0.0000000000
     17049       137  PMPE      H16T          -14.9658231845      -28.2225622180       -0.7377889216  MEMB      137             0.0000000000
     17050       137  PMPE      C33            -8.0092555495      -24.2149515359       -9.6867663340  MEMB      137             0.0000000000
     17051       137  PMPE      H3X            -7.2964465547      -24.4276561920       -8.8615509375  MEMB      137             0.0000000000
     17052       137  PMPE      H3Y            -8.7088674633      -25.0535070512       -9.8909452360  MEMB      137             0.0000000000
     17053       137  PMPE      C34            -9.0146102724      -23.1066743201       -9.0664375292  MEMB      137             0.0000000000
     17054       137  PMPE      H4X            -9.8552484433      -22.8512097412       -9.7464272241  MEMB      137             0.0000000000
     17055       137  PMPE      H4Y            -8.3505033229      -22.2415324758       -8.8547473771  MEMB      137             0.0000000000
     17056       137  PMPE      C35            -9.5890219266      -23.5185616931       -7.7577466607  MEMB      137             0.0000000000
     17057       137  PMPE      H5X            -8.8352158867      -23.8365381496       -7.0060890686  MEMB      137             0.0000000000
     17058       137  PMPE      H5Y           -10.1851301830      -24.4276708175       -7.9868676304  MEMB      137             0.0000000000
     17059       137  PMPE      C36           -10.6752839478      -22.5474668088       -7.2514739973  MEMB      137             0.0000000000
     17060       137  PMPE      H6X           -11.2641933923      -23.0705802072       -6.4679819728  MEMB      137             0.0000000000
     17061       137  PMPE      H6Y           -11.4310717115      -22.3600716235       -8.0439314932  MEMB      137             0.0000000000
     17062       137  PMPE      C37           -10.2079217667      -21.1889221044       -6.7448516747  MEMB      137             0.0000000000
     17063       137  PMPE      H7X           -11.0938644014      -20.5352910176       -6.8938254140  MEMB      137             0.0000000000
     17064       137  PMPE      H7Y            -9.4105491752      -20.7997136567       -7.4134589610  MEMB      137             0.0000000000
     17065       137  PMPE      C38            -9.4840955194      -21.2190010822       -5.3549795690  MEMB      137             0.0000000000
     17066       137  PMPE      H8X            -9.0387138835      -20.2083666396       -5.2342568143  MEMB      137             0.0000000000
     17067       137  PMPE      H8Y            -8.7176159067      -22.0223003063       -5.3942225244  MEMB      137             0.0000000000
     17068       137  PMPE      C39           -10.3632780291      -21.3909585188       -4.1232680127  MEMB      137             0.0000000000
     17069       137  PMPE      H9X           -10.8319943587      -22.3954048943       -4.1988528587  MEMB      137             0.0000000000
     17070       137  PMPE      H9Y           -11.1491334440      -20.6057805367       -4.1074962111  MEMB      137             0.0000000000
     17071       137  PMPE      C310           -9.5928957338      -21.2056709785       -2.7943918324  MEMB      137             0.0000000000
     17072       137  PMPE      H10X          -10.1647725765      -21.2783084178       -1.8446536259  MEMB      137             0.0000000000
     17073       137  PMPE      H10Y           -9.2323535980      -20.1567520556       -2.7303641853  MEMB      137             0.0000000000
     17074       137  PMPE      C311           -8.4049645676      -22.1615862955       -2.6383143850  MEMB      137             0.0000000000
     17075       137  PMPE      H11X           -7.6114151392      -22.0002648522       -3.3989563123  MEMB      137             0.0000000000
     17076       137  PMPE      H11Y           -8.7712190003      -23.1834618065       -2.8748502132  MEMB      137             0.0000000000
     17077       137  PMPE      C312           -7.6590283572      -21.9681526644       -1.2968823934  MEMB      137             0.0000000000
     17078       137  PMPE      H12X           -8.2498257466      -21.8235639552       -0.3671653019  MEMB      137             0.0000000000
     17079       137  PMPE      H12Y           -7.0115004202      -21.0679707729       -1.3654473542  MEMB      137             0.0000000000
     17080       137  PMPE      C313           -6.6110681541      -23.0837981939       -1.0416690636  MEMB      137             0.0000000000
     17081       137  PMPE      H13X           -5.8117368529      -22.6838506567       -0.3817959004  MEMB      137             0.0000000000
     17082       137  PMPE      H13Y           -6.2264021084      -23.4163376955       -2.0294793173  MEMB      137             0.0000000000
     17083       137  PMPE      C314           -7.1970656378      -24.3896972166       -0.3646380214  MEMB      137             0.0000000000
     17084       137  PMPE      H14X           -8.1168230998      -24.5902702775       -0.9546690884  MEMB      137             0.0000000000
     17085       137  PMPE      H14Y           -7.3904820167      -24.3334282542        0.7279480890  MEMB      137             0.0000000000
     17086       137  PMPE      C315           -6.1899990957      -25.6093241347       -0.4630783683  MEMB      137             0.0000000000
     17087       137  PMPE      H15X           -5.3611594178      -25.3801447177        0.2403584777  MEMB      137             0.0000000000
     17088       137  PMPE      H15Y           -5.8541071190      -25.8048635531       -1.5038759333  MEMB      137             0.0000000000
     17089       137  PMPE      C316           -6.7087236426      -27.0145814081       -0.0607685926  MEMB      137             0.0000000000
     17090       137  PMPE      H16X           -7.1461701052      -27.0287562597        0.9603875626  MEMB      137             0.0000000000
     17091       137  PMPE      H16Y           -5.9176798774      -27.7942673014       -0.0350711483  MEMB      137             0.0000000000
     17092       137  PMPE      H16Z           -7.5071677588      -27.4302181329       -0.7119634271  MEMB      137             0.0000000000
     17093       138  POPE      N               3.7968459951       23.9177757615      -18.8295132951  MEMB      138             0.0000000000
     17094       138  POPE      HN1             2.9246985982       23.3803047110      -19.0086326555  MEMB      138             0.0000000000
     17095       138  POPE      HN2             4.5778014443       23.2332599776      -18.7734200896  MEMB      138             0.0000000000
     17096       138  POPE      HN3             3.7478847007       24.4380433227      -17.9303333430  MEMB      138             0.0000000000
     17097       138  POPE      C12             4.0108028752       24.7394432660      -20.1038334132  MEMB      138             0.0000000000
     17098       138  POPE      H12A            3.0155604789       25.0733907845      -20.4675538498  MEMB      138             0.0000000000
     17099       138  POPE      H12B            4.5372964136       24.1272665274      -20.8669619632  MEMB      138             0.0000000000
     17100       138  POPE      C11             4.7408758432       26.1018247236      -19.7025117572  MEMB      138             0.0000000000
     17101       138  POPE      H11A            4.9490795139       26.6195596413      -20.6632005342  MEMB      138             0.0000000000
     17102       138  POPE      H11B            5.6869003059       25.8132684366      -19.1964545298  MEMB      138             0.0000000000
     17103       138  POPE      P               4.0990411416       28.4165627630      -18.7586647812  MEMB      138             0.0000000000
     17104       138  POPE      O13             2.9075170321       28.9075927476      -18.0489964157  MEMB      138             0.0000000000
     17105       138  POPE      O14             4.5468501826       29.1373531966      -20.0000075233  MEMB      138             0.0000000000
     17106       138  POPE      O11             5.3179695264       28.5514325646      -17.6860959410  MEMB      138             0.0000000000
     17107       138  POPE      O12             3.8384665720       26.8690005622      -18.8703768712  MEMB      138             0.0000000000
     17108       138  POPE      C1              5.2531986029       27.6108225159      -16.6504892366  MEMB      138             0.0000000000
     17109       138  POPE      HA              6.0847466176       26.8762128959      -16.7070368050  MEMB      138             0.0000000000
     17110       138  POPE      HB              4.2856856896       27.0927474988      -16.4777523094  MEMB      138             0.0000000000
     17111       138  POPE      C2              5.5024521142       28.4332256644      -15.3234852926  MEMB      138             0.0000000000
     17112       138  POPE      HS              5.3945239222       27.6674448635      -14.5258311626  MEMB      138             0.0000000000
     17113       138  POPE      O21             4.5316612424       29.4842878943      -15.2015162705  MEMB      138             0.0000000000
     17114       138  POPE      C21             3.9720248056       29.7810709247      -14.0087639182  MEMB      138             0.0000000000
     17115       138  POPE      O22             4.2239007975       29.2132398239      -12.9452271897  MEMB      138             0.0000000000
     17116       138  POPE      C22             2.8107309011       30.8117864308      -14.1569414705  MEMB      138             0.0000000000
     17117       138  POPE      H2R             2.0308903656       30.5559185473      -14.9057411362  MEMB      138             0.0000000000
     17118       138  POPE      H2S             3.1546163779       31.8560582203      -14.3168169989  MEMB      138             0.0000000000
     17119       138  POPE      C3              6.8573728358       29.1511323174      -15.2997009328  MEMB      138             0.0000000000
     17120       138  POPE      HX              6.8291564315       29.9576393970      -16.0632920492  MEMB      138             0.0000000000
     17121       138  POPE      HY              7.7608866598       28.5217967758      -15.4477570307  MEMB      138             0.0000000000
     17122       138  POPE      O31             7.1417434563       29.7816683197      -14.0060597616  MEMB      138             0.0000000000
     17123       138  POPE      C31             7.6805251771       28.9953412161      -13.0414764024  MEMB      138             0.0000000000
     17124       138  POPE      O32             7.7412855668       27.7875638911      -13.0717208175  MEMB      138             0.0000000000
     17125       138  POPE      C32             7.8976216234       29.9149729512      -11.8324462838  MEMB      138             0.0000000000
     17126       138  POPE      H2X             8.4438541846       29.5043632320      -10.9564607415  MEMB      138             0.0000000000
     17127       138  POPE      H2Y             6.8609861551       30.2385786863      -11.5979530543  MEMB      138             0.0000000000
     17128       138  POPE      C23             2.0079558103       30.8264947908      -12.8081814875  MEMB      138             0.0000000000
     17129       138  POPE      H3R             1.5230577734       31.8260633638      -12.8005953868  MEMB      138             0.0000000000
     17130       138  POPE      H3S             2.7767210200       30.8967478480      -12.0091914001  MEMB      138             0.0000000000
     17131       138  POPE      C24             0.9809833969       29.6908415197      -12.5445472233  MEMB      138             0.0000000000
     17132       138  POPE      H4R             1.5515742964       28.7603191549      -12.3374839428  MEMB      138             0.0000000000
     17133       138  POPE      H4S             0.3356502395       29.6030829858      -13.4446385190  MEMB      138             0.0000000000
     17134       138  POPE      C25             0.1247312659       29.9014050757      -11.3420599401  MEMB      138             0.0000000000
     17135       138  POPE      H5R            -0.7497417176       29.2202489438      -11.4171889964  MEMB      138             0.0000000000
     17136       138  POPE      H5S            -0.2841427085       30.9249333683      -11.4818191488  MEMB      138             0.0000000000
     17137       138  POPE      C26             0.8729956336       29.8405559586       -9.9965277002  MEMB      138             0.0000000000
     17138       138  POPE      H6R             1.6897777688       30.5910203987      -10.0597047517  MEMB      138             0.0000000000
     17139       138  POPE      H6S             1.2946774436       28.8424895765       -9.7508266230  MEMB      138             0.0000000000
     17140       138  POPE      C27            -0.1780520274       30.2299745923       -8.8565350637  MEMB      138             0.0000000000
     17141       138  POPE      H7R            -0.9563094276       29.4374817571       -8.8808622731  MEMB      138             0.0000000000
     17142       138  POPE      H7S            -0.6268563303       31.2105064673       -9.1238412890  MEMB      138             0.0000000000
     17143       138  POPE      C28             0.2754727144       30.2604516526       -7.3623478209  MEMB      138             0.0000000000
     17144       138  POPE      H8R            -0.6844350783       30.5191764918       -6.8664046066  MEMB      138             0.0000000000
     17145       138  POPE      H8S             0.9568846282       31.1222261512       -7.1969904688  MEMB      138             0.0000000000
     17146       138  POPE      C29             0.7189338799       28.9885630233       -6.6976549156  MEMB      138             0.0000000000
     17147       138  POPE      H91            -0.1568257947       28.4888127711       -6.2580014385  MEMB      138             0.0000000000
     17148       138  POPE      C210            2.0164870643       28.5531132000       -6.5870348537  MEMB      138             0.0000000000
     17149       138  POPE      H101            2.2820385116       27.6593717860       -6.0033325851  MEMB      138             0.0000000000
     17150       138  POPE      C211            3.1487018792       29.4057281976       -7.1000798703  MEMB      138             0.0000000000
     17151       138  POPE      H11R            2.9134570102       30.4857040649       -7.2124750718  MEMB      138             0.0000000000
     17152       138  POPE      H11S            3.6504722265       29.0355506695       -8.0195993016  MEMB      138             0.0000000000
     17153       138  POPE      C212            4.2827218812       29.4985597828       -6.0195164592  MEMB      138             0.0000000000
     17154       138  POPE      H12R            3.8930760883       29.7012649600       -4.9990218064  MEMB      138             0.0000000000
     17155       138  POPE      H12S            4.7943361342       30.4699355664       -6.1898130534  MEMB      138             0.0000000000
     17156       138  POPE      C213            5.1850614184       28.2750787711       -5.9052874831  MEMB      138             0.0000000000
     17157       138  POPE      H13R            5.8740802564       28.1516478335       -6.7680387661  MEMB      138             0.0000000000
     17158       138  POPE      H13S            4.6217381900       27.3177893958       -5.8810959283  MEMB      138             0.0000000000
     17159       138  POPE      C214            5.9945422564       28.2951063854       -4.5689189238  MEMB      138             0.0000000000
     17160       138  POPE      H14R            6.7818241553       29.0687349161       -4.4423990309  MEMB      138             0.0000000000
     17161       138  POPE      H14S            6.5732386914       27.3467273925       -4.5719171030  MEMB      138             0.0000000000
     17162       138  POPE      C215            5.1155464455       28.2921835721       -3.2995406311  MEMB      138             0.0000000000
     17163       138  POPE      H15R            4.2960165957       27.5431121761       -3.3393357362  MEMB      138             0.0000000000
     17164       138  POPE      H15S            4.6940931948       29.2857371863       -3.0358181874  MEMB      138             0.0000000000
     17165       138  POPE      C216            5.7621444252       27.7105000017       -2.0982807564  MEMB      138             0.0000000000
     17166       138  POPE      H16R            6.0495057154       26.7267560772       -2.5272243336  MEMB      138             0.0000000000
     17167       138  POPE      H16S            5.0536180877       27.5460794630       -1.2584722173  MEMB      138             0.0000000000
     17168       138  POPE      C217            6.9948481752       28.2644622163       -1.5033846698  MEMB      138             0.0000000000
     17169       138  POPE      H17R            7.6884193987       28.7003113209       -2.2539284879  MEMB      138             0.0000000000
     17170       138  POPE      H17S            7.5607469377       27.5011606937       -0.9276674282  MEMB      138             0.0000000000
     17171       138  POPE      C218            6.6518829448       29.4138747340       -0.5752040861  MEMB      138             0.0000000000
     17172       138  POPE      H18R            7.4597879649       29.7337349496        0.1171121473  MEMB      138             0.0000000000
     17173       138  POPE      H18S            5.7706776751       29.2601031993        0.0836991327  MEMB      138             0.0000000000
     17174       138  POPE      H18T            6.3908208979       30.3189365785       -1.1642966584  MEMB      138             0.0000000000
     17175       138  POPE      C33             8.7058026870       31.1546510333      -12.1374412767  MEMB      138             0.0000000000
     17176       138  POPE      H3X             8.0121850848       32.0047288593      -12.3123226663  MEMB      138             0.0000000000
     17177       138  POPE      H3Y             9.2994757667       30.9865128638      -13.0613474824  MEMB      138             0.0000000000
     17178       138  POPE      C34             9.5960902943       31.6348113047      -10.9865970122  MEMB      138             0.0000000000
     17179       138  POPE      H4X            10.5311338567       32.1393465704      -11.3113407274  MEMB      138             0.0000000000
     17180       138  POPE      H4Y             9.9304786182       30.7602860562      -10.3885070703  MEMB      138             0.0000000000
     17181       138  POPE      C35             8.9269766977       32.7368770234      -10.1215960028  MEMB      138             0.0000000000
     17182       138  POPE      H5X             8.6526693192       33.6097174544      -10.7518542616  MEMB      138             0.0000000000
     17183       138  POPE      H5Y             9.6368071595       32.8850996149       -9.2798761654  MEMB      138             0.0000000000
     17184       138  POPE      C36             7.7004374429       32.2798406748       -9.2924743364  MEMB      138             0.0000000000
     17185       138  POPE      H6X             7.9339647757       31.2871881875       -8.8515355135  MEMB      138             0.0000000000
     17186       138  POPE      H6Y             6.9212685868       32.1865105920      -10.0789256279  MEMB      138             0.0000000000
     17187       138  POPE      C37             7.3021025830       33.2896993508       -8.2044785188  MEMB      138             0.0000000000
     17188       138  POPE      H7X             7.0713077288       34.2624208343       -8.6891098876  MEMB      138             0.0000000000
     17189       138  POPE      H7Y             8.1301808639       33.3845277687       -7.4698932150  MEMB      138             0.0000000000
     17190       138  POPE      C38             6.0647608223       32.8886629624       -7.3804132634  MEMB      138             0.0000000000
     17191       138  POPE      H8X             6.2529169239       31.8482459726       -7.0391641942  MEMB      138             0.0000000000
     17192       138  POPE      H8Y             5.1461224044       32.8586017227       -8.0045288474  MEMB      138             0.0000000000
     17193       138  POPE      C39             5.8376396480       33.8290893480       -6.2218775361  MEMB      138             0.0000000000
     17194       138  POPE      H9X             6.0297823641       34.9063209177       -6.4141637792  MEMB      138             0.0000000000
     17195       138  POPE      H9Y             6.5675008798       33.5821836066       -5.4214641595  MEMB      138             0.0000000000
     17196       138  POPE      C310            4.4127363328       33.8078451448       -5.7158681469  MEMB      138             0.0000000000
     17197       138  POPE      H10X            3.7928825292       33.3143604643       -6.4946981811  MEMB      138             0.0000000000
     17198       138  POPE      H10Y            3.9099569053       34.7801945322       -5.5259458850  MEMB      138             0.0000000000
     17199       138  POPE      C311            4.3366556482       32.9951036310       -4.3630701495  MEMB      138             0.0000000000
     17200       138  POPE      H11X            4.8579536999       33.5028698206       -3.5235811196  MEMB      138             0.0000000000
     17201       138  POPE      H11Y            4.7173267581       31.9727959318       -4.5735404838  MEMB      138             0.0000000000
     17202       138  POPE      C312            2.9032093529       32.7813036743       -3.9544354475  MEMB      138             0.0000000000
     17203       138  POPE      H12X            2.3770832385       32.1087288631       -4.6651786763  MEMB      138             0.0000000000
     17204       138  POPE      H12Y            2.2899522228       33.7058907438       -4.0125335854  MEMB      138             0.0000000000
     17205       138  POPE      C313            2.6595161419       31.9637359832       -2.5781074884  MEMB      138             0.0000000000
     17206       138  POPE      H13X            3.1553017501       32.5663799402       -1.7873251099  MEMB      138             0.0000000000
     17207       138  POPE      H13Y            3.1655964907       30.9788293938       -2.6684591458  MEMB      138             0.0000000000
     17208       138  POPE      C314            1.1606338448       31.8017201641       -2.1821120628  MEMB      138             0.0000000000
     17209       138  POPE      H14X            1.0533738413       31.0577702221       -1.3639710969  MEMB      138             0.0000000000
     17210       138  POPE      H14Y            0.5763669686       31.3639605854       -3.0195610327  MEMB      138             0.0000000000
     17211       138  POPE      C315            0.4492169656       33.0783685646       -1.7166688357  MEMB      138             0.0000000000
     17212       138  POPE      H15X           -0.5227610825       32.8736833794       -1.2189908732  MEMB      138             0.0000000000
     17213       138  POPE      H15Y            0.2897081715       33.6505501176       -2.6555440733  MEMB      138             0.0000000000
     17214       138  POPE      C316            1.2494796419       33.9016068919       -0.6645519440  MEMB      138             0.0000000000
     17215       138  POPE      H16X            1.4908087169       33.1665600410        0.1328105784  MEMB      138             0.0000000000
     17216       138  POPE      H16Y            0.6564631926       34.7525220264       -0.2663134942  MEMB      138             0.0000000000
     17217       138  POPE      H16Z            2.2233294436       34.2657214581       -1.0561620106  MEMB      138             0.0000000000
     17218       139  PMPE      N             -10.2897677613       25.2133074769      -19.9675201795  MEMB      139             0.0000000000
     17219       139  PMPE      HN1            -9.7216273778       25.7927099041      -19.3170517181  MEMB      139             0.0000000000
     17220       139  PMPE      HN2           -10.2626172363       24.2103936375      -19.6936101819  MEMB      139             0.0000000000
     17221       139  PMPE      HN3            -9.9922227953       25.3144471176      -20.9589019463  MEMB      139             0.0000000000
     17222       139  PMPE      C12           -11.6967708169       25.7158269359      -19.8748849409  MEMB      139             0.0000000000
     17223       139  PMPE      H12A          -12.2669479241       25.4203359478      -20.7814742550  MEMB      139             0.0000000000
     17224       139  PMPE      H12B          -11.7335395585       26.8262182768      -19.8750486274  MEMB      139             0.0000000000
     17225       139  PMPE      C11           -12.4176924418       24.9932661281      -18.6980624427  MEMB      139             0.0000000000
     17226       139  PMPE      H11A          -11.7829556749       25.2699557649      -17.8292281595  MEMB      139             0.0000000000
     17227       139  PMPE      H11B          -12.4275029217       23.8848622820      -18.7733333858  MEMB      139             0.0000000000
     17228       139  PMPE      P             -14.9497130834       24.7729331251      -18.7590647586  MEMB      139             0.0000000000
     17229       139  PMPE      O13           -14.6795960330       23.5320391204      -17.9018770587  MEMB      139             0.0000000000
     17230       139  PMPE      O14           -15.4041436655       24.6362130099      -20.1709787747  MEMB      139             0.0000000000
     17231       139  PMPE      O11           -16.0546808678       25.6519682382      -17.9192490907  MEMB      139             0.0000000000
     17232       139  PMPE      O12           -13.6892497316       25.6335603643      -18.7083627360  MEMB      139             0.0000000000
     17233       139  PMPE      C1            -16.5962028635       26.8259117805      -18.4727856173  MEMB      139             0.0000000000
     17234       139  PMPE      HA            -17.2084724056       26.6417346969      -19.3813700660  MEMB      139             0.0000000000
     17235       139  PMPE      HB            -15.8002040535       27.5798558928      -18.6524387685  MEMB      139             0.0000000000
     17236       139  PMPE      C2            -17.5814096241       27.3589626770      -17.4528162687  MEMB      139             0.0000000000
     17237       139  PMPE      HS            -17.9525435763       28.3665761974      -17.7379404867  MEMB      139             0.0000000000
     17238       139  PMPE      O21           -17.0495960170       27.4226927209      -16.1067236084  MEMB      139             0.0000000000
     17239       139  PMPE      C21           -16.1315925535       28.3318745592      -15.8888960953  MEMB      139             0.0000000000
     17240       139  PMPE      O22           -15.8233391434       29.2431054908      -16.6375536498  MEMB      139             0.0000000000
     17241       139  PMPE      C22           -15.4366446193       27.9878087590      -14.5768606777  MEMB      139             0.0000000000
     17242       139  PMPE      H2R           -15.4167560614       26.8821489367      -14.4698952280  MEMB      139             0.0000000000
     17243       139  PMPE      H2S           -16.1688591581       28.3332790770      -13.8160500270  MEMB      139             0.0000000000
     17244       139  PMPE      C3            -18.9136479183       26.4659530833      -17.4410563568  MEMB      139             0.0000000000
     17245       139  PMPE      HX            -19.1833552343       26.3058561985      -18.5068648803  MEMB      139             0.0000000000
     17246       139  PMPE      HY            -19.7643415270       26.9409342091      -16.9071701053  MEMB      139             0.0000000000
     17247       139  PMPE      O31           -18.6650566204       25.1258870176      -17.0372789380  MEMB      139             0.0000000000
     17248       139  PMPE      C31           -18.6303760742       24.8883736747      -15.7075155032  MEMB      139             0.0000000000
     17249       139  PMPE      O32           -18.9710463960       25.6571155142      -14.8401004856  MEMB      139             0.0000000000
     17250       139  PMPE      C32           -18.1552358724       23.4230821466      -15.5483163848  MEMB      139             0.0000000000
     17251       139  PMPE      H2X           -17.0506221606       23.3241026430      -15.4823416457  MEMB      139             0.0000000000
     17252       139  PMPE      H2Y           -18.5428485296       22.8960090572      -16.4462424842  MEMB      139             0.0000000000
     17253       139  PMPE      C23           -14.0917769042       28.6947817369      -14.3679982210  MEMB      139             0.0000000000
     17254       139  PMPE      H3R           -14.1869450193       29.7886373765      -14.5375389880  MEMB      139             0.0000000000
     17255       139  PMPE      H3S           -13.3433691199       28.4210744403      -15.1421374821  MEMB      139             0.0000000000
     17256       139  PMPE      C24           -13.3656722895       28.3760733911      -13.0396674964  MEMB      139             0.0000000000
     17257       139  PMPE      H4R           -13.8986373523       28.9150359357      -12.2273935796  MEMB      139             0.0000000000
     17258       139  PMPE      H4S           -12.4020598669       28.9278311511      -13.0031228974  MEMB      139             0.0000000000
     17259       139  PMPE      C25           -13.1913944497       26.9165061538      -12.7661405594  MEMB      139             0.0000000000
     17260       139  PMPE      H5R           -12.6157121649       26.5713273026      -13.6514438096  MEMB      139             0.0000000000
     17261       139  PMPE      H5S           -14.1486673316       26.3722172504      -12.6188341708  MEMB      139             0.0000000000
     17262       139  PMPE      C26           -12.2514643088       26.6044618617      -11.5526442103  MEMB      139             0.0000000000
     17263       139  PMPE      H6R           -11.3511698009       27.2372832604      -11.7053798238  MEMB      139             0.0000000000
     17264       139  PMPE      H6S           -11.8883501073       25.5558368525      -11.6060721654  MEMB      139             0.0000000000
     17265       139  PMPE      C27           -12.9122135642       26.8090401321      -10.1986905563  MEMB      139             0.0000000000
     17266       139  PMPE      H7R           -13.6496016846       25.9877214393      -10.0721383163  MEMB      139             0.0000000000
     17267       139  PMPE      H7S           -13.4293026601       27.7921688004      -10.2186414416  MEMB      139             0.0000000000
     17268       139  PMPE      C28           -11.9483585317       26.7455438429       -8.9950159768  MEMB      139             0.0000000000
     17269       139  PMPE      H8R           -11.3941565690       25.7837450358       -9.0411028289  MEMB      139             0.0000000000
     17270       139  PMPE      H8S           -12.5905054549       26.8669091591       -8.0965514554  MEMB      139             0.0000000000
     17271       139  PMPE      C29           -11.0688965304       27.9965054437       -9.0365823522  MEMB      139             0.0000000000
     17272       139  PMPE      H9R           -11.1401030918       28.6643451201       -9.9215918158  MEMB      139             0.0000000000
     17273       139  PMPE      C217           -9.5864009568       27.6120512384       -9.2386991163  MEMB      139             0.0000000000
     17274       139  PMPE      H17R           -9.1486204776       28.3103813325       -9.9412457240  MEMB      139             0.0000000000
     17275       139  PMPE      H17S           -9.4386353764       26.5461263233       -9.1168032310  MEMB      139             0.0000000000
     17276       139  PMPE      C210          -10.0796594114       28.2978553394       -7.9353661534  MEMB      139             0.0000000000
     17277       139  PMPE      H10R           -9.9332776877       29.3481217236       -7.6039538436  MEMB      139             0.0000000000
     17278       139  PMPE      C211          -10.0682234212       27.3333869477       -6.7769829852  MEMB      139             0.0000000000
     17279       139  PMPE      H11R           -9.0258458851       27.1558263032       -6.4360394522  MEMB      139             0.0000000000
     17280       139  PMPE      H11S          -10.4535693919       26.3107205074       -6.9769402809  MEMB      139             0.0000000000
     17281       139  PMPE      C212          -10.8607009924       27.8640801062       -5.5601087567  MEMB      139             0.0000000000
     17282       139  PMPE      H12R          -11.9100022856       28.0241776627       -5.8882194164  MEMB      139             0.0000000000
     17283       139  PMPE      H12S          -10.5385218786       28.8646220745       -5.2003346224  MEMB      139             0.0000000000
     17284       139  PMPE      C213          -11.0253683122       26.7851627021       -4.4357333109  MEMB      139             0.0000000000
     17285       139  PMPE      H13R          -11.2982892648       25.8055408557       -4.8831440658  MEMB      139             0.0000000000
     17286       139  PMPE      H13S          -11.9232542207       27.1125085692       -3.8691946995  MEMB      139             0.0000000000
     17287       139  PMPE      C214           -9.7736822704       26.5768189161       -3.6191311531  MEMB      139             0.0000000000
     17288       139  PMPE      H14R           -9.3270069912       27.5149483396       -3.2257920628  MEMB      139             0.0000000000
     17289       139  PMPE      H14S           -9.0560906516       26.2841386633       -4.4151970229  MEMB      139             0.0000000000
     17290       139  PMPE      C215          -10.0815273773       25.6782880130       -2.4283520735  MEMB      139             0.0000000000
     17291       139  PMPE      H15R          -10.9150976189       26.0752252218       -1.8103525951  MEMB      139             0.0000000000
     17292       139  PMPE      H15S           -9.1396907747       25.5784126947       -1.8475853463  MEMB      139             0.0000000000
     17293       139  PMPE      C216          -10.4360349702       24.2559648652       -2.7570848092  MEMB      139             0.0000000000
     17294       139  PMPE      H16R          -10.2911177402       23.7487983554       -1.7792797572  MEMB      139             0.0000000000
     17295       139  PMPE      H16S          -11.5302344249       24.0764891368       -2.8266334813  MEMB      139             0.0000000000
     17296       139  PMPE      H16T           -9.8611696952       23.6262804498       -3.4693698024  MEMB      139             0.0000000000
     17297       139  PMPE      C33           -18.7731272077       22.7317845840      -14.3329039570  MEMB      139             0.0000000000
     17298       139  PMPE      H3X           -18.4612421893       21.6669841600      -14.3899025674  MEMB      139             0.0000000000
     17299       139  PMPE      H3Y           -19.8793842816       22.7576094307      -14.4321488059  MEMB      139             0.0000000000
     17300       139  PMPE      C34           -18.2381338019       23.2600240698      -12.9595569739  MEMB      139             0.0000000000
     17301       139  PMPE      H4X           -18.7578889731       22.6317542559      -12.2049358812  MEMB      139             0.0000000000
     17302       139  PMPE      H4Y           -18.5647214705       24.3132910874      -12.8243160047  MEMB      139             0.0000000000
     17303       139  PMPE      C35           -16.7149008322       22.9405456802      -12.8840768557  MEMB      139             0.0000000000
     17304       139  PMPE      H5X           -16.1509237224       23.3908666285      -13.7287434910  MEMB      139             0.0000000000
     17305       139  PMPE      H5Y           -16.4475420617       21.8748732363      -12.7192056696  MEMB      139             0.0000000000
     17306       139  PMPE      C36           -15.8888347861       23.5965618149      -11.7813382986  MEMB      139             0.0000000000
     17307       139  PMPE      H6X           -15.9110464186       24.6865322466      -11.9953294335  MEMB      139             0.0000000000
     17308       139  PMPE      H6Y           -14.8398673769       23.2416519411      -11.8709339144  MEMB      139             0.0000000000
     17309       139  PMPE      C37           -16.4135640951       23.2845970584      -10.3682342824  MEMB      139             0.0000000000
     17310       139  PMPE      H7X           -16.2787485785       22.2298470868      -10.0462895130  MEMB      139             0.0000000000
     17311       139  PMPE      H7Y           -17.5031246649       23.4564245561      -10.2353649557  MEMB      139             0.0000000000
     17312       139  PMPE      C38           -15.6771500187       24.0743610564       -9.3236794616  MEMB      139             0.0000000000
     17313       139  PMPE      H8X           -15.9650129791       25.1331614400       -9.4980281943  MEMB      139             0.0000000000
     17314       139  PMPE      H8Y           -14.5941234080       23.8944164968       -9.4939567254  MEMB      139             0.0000000000
     17315       139  PMPE      C39           -16.0189158203       23.7907016738       -7.8175910681  MEMB      139             0.0000000000
     17316       139  PMPE      H9X           -15.5859861467       22.8024251755       -7.5526334752  MEMB      139             0.0000000000
     17317       139  PMPE      H9Y           -17.1205025469       23.8847020136       -7.7080846502  MEMB      139             0.0000000000
     17318       139  PMPE      C310          -15.2826633589       24.9177150022       -6.9783614500  MEMB      139             0.0000000000
     17319       139  PMPE      H10X          -15.0862044818       25.8365616171       -7.5711901421  MEMB      139             0.0000000000
     17320       139  PMPE      H10Y          -14.2715600238       24.5687369221       -6.6780193517  MEMB      139             0.0000000000
     17321       139  PMPE      C311          -16.1096228810       25.3718456047       -5.7461462926  MEMB      139             0.0000000000
     17322       139  PMPE      H11X          -17.0169216688       25.8920017809       -6.1210696023  MEMB      139             0.0000000000
     17323       139  PMPE      H11Y          -15.5446545309       26.1328124143       -5.1664386146  MEMB      139             0.0000000000
     17324       139  PMPE      C312          -16.6066301190       24.2365392427       -4.8962059630  MEMB      139             0.0000000000
     17325       139  PMPE      H12X          -15.7880877872       23.5455681367       -4.6014721655  MEMB      139             0.0000000000
     17326       139  PMPE      H12Y          -17.3889692314       23.7436373871       -5.5120907297  MEMB      139             0.0000000000
     17327       139  PMPE      C313          -17.1933179871       24.8016249070       -3.5396157881  MEMB      139             0.0000000000
     17328       139  PMPE      H13X          -17.6334940184       23.9202298140       -3.0260891051  MEMB      139             0.0000000000
     17329       139  PMPE      H13Y          -18.0933021198       25.3803413728       -3.8386754689  MEMB      139             0.0000000000
     17330       139  PMPE      C314          -16.2324275167       25.5733696854       -2.6466387949  MEMB      139             0.0000000000
     17331       139  PMPE      H14X          -16.8966227715       26.0597193082       -1.9005622996  MEMB      139             0.0000000000
     17332       139  PMPE      H14Y          -15.6799356799       26.3630327184       -3.1993649445  MEMB      139             0.0000000000
     17333       139  PMPE      C315          -15.3121068591       24.5783992434       -1.9380718601  MEMB      139             0.0000000000
     17334       139  PMPE      H15X          -14.7457704295       23.9321973427       -2.6423504855  MEMB      139             0.0000000000
     17335       139  PMPE      H15Y          -15.9924636921       23.9521489466       -1.3222430279  MEMB      139             0.0000000000
     17336       139  PMPE      C316          -14.1516164338       25.1433216704       -1.0472307091  MEMB      139             0.0000000000
     17337       139  PMPE      H16X          -14.6182987664       25.9571943459       -0.4521337607  MEMB      139             0.0000000000
     17338       139  PMPE      H16Y          -13.3799054998       25.7302507334       -1.5897217444  MEMB      139             0.0000000000
     17339       139  PMPE      H16Z          -13.7059344592       24.3700138507       -0.3856532800  MEMB      139             0.0000000000
     17340       140  PMPG      C13           -25.4806124465        7.2142793944      -20.4033968282  MEMB      140             0.0000000000
     17341       140  PMPG      H13A          -24.6792507602        7.9044786983      -20.7436402881  MEMB      140             0.0000000000
     17342       140  PMPG      H13B          -25.1593535268        6.5487964383      -19.5737907565  MEMB      140             0.0000000000
     17343       140  PMPG      OC3           -26.1209690087        6.4555967652      -21.4678823994  MEMB      140             0.0000000000
     17344       140  PMPG      HO3           -25.6081870480        6.5295772930      -22.2760790182  MEMB      140             0.0000000000
     17345       140  PMPG      C12           -26.5834899241        8.1836406706      -19.8231859325  MEMB      140             0.0000000000
     17346       140  PMPG      H12A          -26.7812038912        8.9612700937      -20.5971243717  MEMB      140             0.0000000000
     17347       140  PMPG      OC2           -26.0946558991        8.8407658562      -18.6530283891  MEMB      140             0.0000000000
     17348       140  PMPG      HO2           -26.8914611381        9.3002442429      -18.3085028266  MEMB      140             0.0000000000
     17349       140  PMPG      C11           -27.9461169237        7.3206603495      -19.5391558373  MEMB      140             0.0000000000
     17350       140  PMPG      H11A          -27.6200172296        6.4380675174      -18.9483852587  MEMB      140             0.0000000000
     17351       140  PMPG      H11B          -28.4656104509        7.0470491229      -20.4823336451  MEMB      140             0.0000000000
     17352       140  PMPG      P             -30.0446257394        7.1471736721      -18.0222386099  MEMB      140             0.0000000000
     17353       140  PMPG      O13           -30.6435690976        6.2869521583      -19.0415034618  MEMB      140             0.0000000000
     17354       140  PMPG      O14           -30.9630482774        7.9811624556      -17.2829308608  MEMB      140             0.0000000000
     17355       140  PMPG      O11           -29.1766346321        6.2981791139      -16.9961379541  MEMB      140             0.0000000000
     17356       140  PMPG      O12           -28.9202250562        8.0864970698      -18.7705397231  MEMB      140             0.0000000000
     17357       140  PMPG      C1            -28.1833613463        6.9247936607      -16.2193028155  MEMB      140             0.0000000000
     17358       140  PMPG      HA            -28.5716917055        7.1134788510      -15.1956239762  MEMB      140             0.0000000000
     17359       140  PMPG      HB            -27.8717600912        7.9322229301      -16.5690343971  MEMB      140             0.0000000000
     17360       140  PMPG      C2            -26.9752444558        5.9802484586      -16.1516394513  MEMB      140             0.0000000000
     17361       140  PMPG      HS            -26.4745365892        5.9229331373      -17.1417545121  MEMB      140             0.0000000000
     17362       140  PMPG      O21           -27.4402844988        4.6385383396      -15.8550861860  MEMB      140             0.0000000000
     17363       140  PMPG      C21           -26.6496916747        3.6654769347      -16.4116813459  MEMB      140             0.0000000000
     17364       140  PMPG      O22           -25.7233913821        3.8413993013      -17.1988259923  MEMB      140             0.0000000000
     17365       140  PMPG      C22           -27.0795638810        2.2910425656      -15.9096134906  MEMB      140             0.0000000000
     17366       140  PMPG      H2R           -27.3858368392        1.7761920223      -16.8452664966  MEMB      140             0.0000000000
     17367       140  PMPG      H2S           -27.8965546399        2.2600649874      -15.1573581862  MEMB      140             0.0000000000
     17368       140  PMPG      C3            -26.0404554438        6.4339821061      -15.1050076110  MEMB      140             0.0000000000
     17369       140  PMPG      HX            -25.7475195812        7.4733878501      -15.3660542429  MEMB      140             0.0000000000
     17370       140  PMPG      HY            -25.0923862760        5.8875794725      -14.9128358659  MEMB      140             0.0000000000
     17371       140  PMPG      O31           -26.6120485315        6.3475980063      -13.7730486178  MEMB      140             0.0000000000
     17372       140  PMPG      C31           -26.9154732708        7.4178505732      -13.1576977474  MEMB      140             0.0000000000
     17373       140  PMPG      O32           -27.0017426465        8.5077308602      -13.7886312676  MEMB      140             0.0000000000
     17374       140  PMPG      C32           -27.1091758725        7.2996134195      -11.6666993833  MEMB      140             0.0000000000
     17375       140  PMPG      H2X           -26.1166865008        7.2640676864      -11.1686810685  MEMB      140             0.0000000000
     17376       140  PMPG      H2Y           -27.6340721366        6.3660651496      -11.3712464090  MEMB      140             0.0000000000
     17377       140  PMPG      C23           -25.7076781778        1.6707216441      -15.4484093519  MEMB      140             0.0000000000
     17378       140  PMPG      H3R           -25.1075157881        1.5523393219      -16.3758315133  MEMB      140             0.0000000000
     17379       140  PMPG      H3S           -25.7777882294        0.6250977315      -15.0795233951  MEMB      140             0.0000000000
     17380       140  PMPG      C24           -24.9959301236        2.2667764761      -14.2273044579  MEMB      140             0.0000000000
     17381       140  PMPG      H4R           -24.5455033081        3.2412580248      -14.5133507308  MEMB      140             0.0000000000
     17382       140  PMPG      H4S           -24.4091170031        1.4241317889      -13.8031337648  MEMB      140             0.0000000000
     17383       140  PMPG      C25           -25.9583480973        2.5115636576      -13.1540832128  MEMB      140             0.0000000000
     17384       140  PMPG      H5R           -26.4558127094        1.5687004997      -12.8412587938  MEMB      140             0.0000000000
     17385       140  PMPG      H5S           -26.6275770175        3.2625641355      -13.6257309073  MEMB      140             0.0000000000
     17386       140  PMPG      C26           -25.3792225854        2.9870641202      -11.8029273944  MEMB      140             0.0000000000
     17387       140  PMPG      H6R           -25.5669164632        4.0733638973      -11.6649229749  MEMB      140             0.0000000000
     17388       140  PMPG      H6S           -24.2889312453        2.8218650648      -11.9381861122  MEMB      140             0.0000000000
     17389       140  PMPG      C27           -25.8584448596        2.2825348581      -10.5111737766  MEMB      140             0.0000000000
     17390       140  PMPG      H7R           -25.1116686840        2.5119385835       -9.7212234242  MEMB      140             0.0000000000
     17391       140  PMPG      H7S           -26.0393100203        1.1962596252      -10.6581930105  MEMB      140             0.0000000000
     17392       140  PMPG      C28           -27.1682074472        2.8495669351       -9.9824438196  MEMB      140             0.0000000000
     17393       140  PMPG      H8R           -27.4626822064        2.1272472217       -9.1913309708  MEMB      140             0.0000000000
     17394       140  PMPG      H8S           -28.0374869986        2.9497767967      -10.6670106917  MEMB      140             0.0000000000
     17395       140  PMPG      C29           -27.0655140486        4.2800705810       -9.4231572991  MEMB      140             0.0000000000
     17396       140  PMPG      H9R           -26.5314832815        5.0281864526      -10.0472205540  MEMB      140             0.0000000000
     17397       140  PMPG      C217          -28.3279123363        4.8042230003       -8.8014637464  MEMB      140             0.0000000000
     17398       140  PMPG      H17R          -28.5159811236        5.8003481770       -9.1825860347  MEMB      140             0.0000000000
     17399       140  PMPG      H17S          -29.1612263587        4.1920957763       -8.4793197664  MEMB      140             0.0000000000
     17400       140  PMPG      C210          -27.0279006732        4.6437614202       -7.9793386910  MEMB      140             0.0000000000
     17401       140  PMPG      H10R          -26.6381939298        5.6644197721       -7.7775808903  MEMB      140             0.0000000000
     17402       140  PMPG      C211          -26.7095117400        3.4864172379       -7.1305529178  MEMB      140             0.0000000000
     17403       140  PMPG      H11R          -27.6210346229        2.8793687628       -6.9436325922  MEMB      140             0.0000000000
     17404       140  PMPG      H11S          -25.9581799557        2.8051370289       -7.5840710193  MEMB      140             0.0000000000
     17405       140  PMPG      C212          -25.8902139842        3.8894297251       -5.8390886867  MEMB      140             0.0000000000
     17406       140  PMPG      H12R          -24.9495093606        4.3687143352       -6.1850391550  MEMB      140             0.0000000000
     17407       140  PMPG      H12S          -25.6550443452        2.9130984178       -5.3639106259  MEMB      140             0.0000000000
     17408       140  PMPG      C213          -26.6910327756        4.7923448271       -4.9258809271  MEMB      140             0.0000000000
     17409       140  PMPG      H13R          -26.7620861298        5.7797246206       -5.4302153346  MEMB      140             0.0000000000
     17410       140  PMPG      H13S          -26.0597747108        4.8492190960       -4.0134123609  MEMB      140             0.0000000000
     17411       140  PMPG      C214          -28.0086313328        4.2985769518       -4.3366290616  MEMB      140             0.0000000000
     17412       140  PMPG      H14R          -28.7169180554        4.3840060172       -5.1883054329  MEMB      140             0.0000000000
     17413       140  PMPG      H14S          -28.3792362325        4.9713467966       -3.5339125248  MEMB      140             0.0000000000
     17414       140  PMPG      C215          -28.0580435623        2.8429231315       -3.8604482739  MEMB      140             0.0000000000
     17415       140  PMPG      H15R          -27.0589008503        2.4894697557       -3.5271222799  MEMB      140             0.0000000000
     17416       140  PMPG      H15S          -28.1754703881        2.2708912483       -4.8055997481  MEMB      140             0.0000000000
     17417       140  PMPG      C216          -29.2266361067        2.5472026051       -2.9637323097  MEMB      140             0.0000000000
     17418       140  PMPG      H16R          -29.1917019174        3.0146325718       -1.9564551160  MEMB      140             0.0000000000
     17419       140  PMPG      H16S          -29.3020702868        1.4665049626       -2.7173123044  MEMB      140             0.0000000000
     17420       140  PMPG      H16T          -30.1566781275        2.9125775676       -3.4493718575  MEMB      140             0.0000000000
     17421       140  PMPG      C33           -27.8096200854        8.5438048008      -11.1289524656  MEMB      140             0.0000000000
     17422       140  PMPG      H3X           -28.8384616052        8.5662533737      -11.5476430365  MEMB      140             0.0000000000
     17423       140  PMPG      H3Y           -27.4707331828        9.5314160502      -11.5085579035  MEMB      140             0.0000000000
     17424       140  PMPG      C34           -27.7603486830        8.6130965027       -9.5858040644  MEMB      140             0.0000000000
     17425       140  PMPG      H4X           -26.7757718819        8.1329380853       -9.4003936647  MEMB      140             0.0000000000
     17426       140  PMPG      H4Y           -28.5289568317        7.9526041904       -9.1304886091  MEMB      140             0.0000000000
     17427       140  PMPG      C35           -27.6832463582        9.9954447519       -9.0031742288  MEMB      140             0.0000000000
     17428       140  PMPG      H5X           -28.6733355487       10.4958677327       -9.0633545004  MEMB      140             0.0000000000
     17429       140  PMPG      H5Y           -26.9157350738       10.4720021866       -9.6498131752  MEMB      140             0.0000000000
     17430       140  PMPG      C36           -27.2550343688       10.0640966053       -7.4631076719  MEMB      140             0.0000000000
     17431       140  PMPG      H6X           -27.0843949537       11.1409378621       -7.2495268535  MEMB      140             0.0000000000
     17432       140  PMPG      H6Y           -26.2367830126        9.6369553130       -7.3404901706  MEMB      140             0.0000000000
     17433       140  PMPG      C37           -28.1925263115        9.3189444413       -6.4946053970  MEMB      140             0.0000000000
     17434       140  PMPG      H7X           -28.5309915437        8.3795075268       -6.9816578198  MEMB      140             0.0000000000
     17435       140  PMPG      H7Y           -29.0409737291       10.0351243661       -6.4553130375  MEMB      140             0.0000000000
     17436       140  PMPG      C38           -27.5402497328        9.0152877470       -5.1003297731  MEMB      140             0.0000000000
     17437       140  PMPG      H8X           -27.1725161076       10.0134183849       -4.7796613533  MEMB      140             0.0000000000
     17438       140  PMPG      H8Y           -26.7642829682        8.2264995648       -5.2003792608  MEMB      140             0.0000000000
     17439       140  PMPG      C39           -28.5438419956        8.5174821000       -4.1499701857  MEMB      140             0.0000000000
     17440       140  PMPG      H9X           -28.9980022405        7.5564374475       -4.4731622503  MEMB      140             0.0000000000
     17441       140  PMPG      H9Y           -29.2961698966        9.3344488265       -4.1797893068  MEMB      140             0.0000000000
     17442       140  PMPG      C310          -28.0503046166        8.2984694216       -2.7252979874  MEMB      140             0.0000000000
     17443       140  PMPG      H10X          -27.5168314739        9.2353358989       -2.4569543547  MEMB      140             0.0000000000
     17444       140  PMPG      H10Y          -27.3630585389        7.4360118234       -2.5904621935  MEMB      140             0.0000000000
     17445       140  PMPG      C311          -29.2095472140        8.1707522091       -1.6378127644  MEMB      140             0.0000000000
     17446       140  PMPG      H11X          -30.0520841372        7.5410127216       -1.9954175091  MEMB      140             0.0000000000
     17447       140  PMPG      H11Y          -29.5550380811        9.2236033835       -1.5574306016  MEMB      140             0.0000000000
     17448       140  PMPG      C312          -28.6706855920        7.7408006057       -0.2706112656  MEMB      140             0.0000000000
     17449       140  PMPG      H12X          -29.5004590892        7.7724146896        0.4674928030  MEMB      140             0.0000000000
     17450       140  PMPG      H12Y          -27.8265024444        8.4507045687       -0.1375211258  MEMB      140             0.0000000000
     17451       140  PMPG      C313          -27.9059348575        6.4014111781       -0.1682092176  MEMB      140             0.0000000000
     17452       140  PMPG      H13X          -27.1163419314        6.3217516721       -0.9457165348  MEMB      140             0.0000000000
     17453       140  PMPG      H13Y          -28.6095279881        5.5437376119       -0.2288214911  MEMB      140             0.0000000000
     17454       140  PMPG      C314          -27.0641045475        6.3593666948        1.0910712353  MEMB      140             0.0000000000
     17455       140  PMPG      H14X          -26.4003441888        7.2495935592        1.0558700033  MEMB      140             0.0000000000
     17456       140  PMPG      H14Y          -26.3957506585        5.4793647983        0.9760892970  MEMB      140             0.0000000000
     17457       140  PMPG      C315          -27.7423153644        6.1492904709        2.4403336177  MEMB      140             0.0000000000
     17458       140  PMPG      H15X          -26.9992946687        5.6687436125        3.1121345995  MEMB      140             0.0000000000
     17459       140  PMPG      H15Y          -28.5888950541        5.4541361421        2.2549030867  MEMB      140             0.0000000000
     17460       140  PMPG      C316          -28.4180891259        7.3629230475        3.2126377285  MEMB      140             0.0000000000
     17461       140  PMPG      H16X          -28.5386764594        7.0259017974        4.2643960757  MEMB      140             0.0000000000
     17462       140  PMPG      H16Y          -29.4185687296        7.5112094457        2.7528847585  MEMB      140             0.0000000000
     17463       140  PMPG      H16Z          -27.7529862194        8.2527023916        3.2285051518  MEMB      140             0.0000000000
     17464       141  PMPE      N              15.9639744868       22.0048294917      -20.1132822383  MEMB      141             0.0000000000
     17465       141  PMPE      HN1            16.6790982438       22.6080503600      -20.5675099886  MEMB      141             0.0000000000
     17466       141  PMPE      HN2            16.0300575555       21.0825299383      -20.5893038586  MEMB      141             0.0000000000
     17467       141  PMPE      HN3            15.0660507077       22.4498184377      -20.3913424561  MEMB      141             0.0000000000
     17468       141  PMPE      C12            16.3794413935       21.9837875195      -18.7127169276  MEMB      141             0.0000000000
     17469       141  PMPE      H12A           15.6363644372       21.5308307879      -18.0220738274  MEMB      141             0.0000000000
     17470       141  PMPE      H12B           16.5984742794       22.9373472679      -18.1863432239  MEMB      141             0.0000000000
     17471       141  PMPE      C11            17.7198017403       21.2397595458      -18.4621550748  MEMB      141             0.0000000000
     17472       141  PMPE      H11A           17.4331366865       20.1923154241      -18.6966866137  MEMB      141             0.0000000000
     17473       141  PMPE      H11B           18.1053887282       21.4008811248      -17.4327458386  MEMB      141             0.0000000000
     17474       141  PMPE      P              19.3361239020       23.2686039648      -19.0010354775  MEMB      141             0.0000000000
     17475       141  PMPE      O13            18.4712486892       24.2854355717      -19.5396652229  MEMB      141             0.0000000000
     17476       141  PMPE      O14            20.7294642379       23.3264771430      -19.4287816507  MEMB      141             0.0000000000
     17477       141  PMPE      O11            19.4099971002       23.3482793946      -17.4200300817  MEMB      141             0.0000000000
     17478       141  PMPE      O12            18.7203340515       21.8151729670      -19.3223333487  MEMB      141             0.0000000000
     17479       141  PMPE      C1             20.4609301402       22.6165961053      -16.7297858380  MEMB      141             0.0000000000
     17480       141  PMPE      HA             21.4018358592       23.0176555292      -17.1635699982  MEMB      141             0.0000000000
     17481       141  PMPE      HB             20.2777376386       21.5327369754      -16.8910651484  MEMB      141             0.0000000000
     17482       141  PMPE      C2             20.3717104347       23.0055275060      -15.2638708318  MEMB      141             0.0000000000
     17483       141  PMPE      HS             21.2309955056       22.5549940179      -14.7226039851  MEMB      141             0.0000000000
     17484       141  PMPE      O21            19.2239978489       22.3285938689      -14.7962825302  MEMB      141             0.0000000000
     17485       141  PMPE      C21            19.1094400024       22.1386805724      -13.4626257773  MEMB      141             0.0000000000
     17486       141  PMPE      O22            20.0181935432       22.2509959088      -12.6566426698  MEMB      141             0.0000000000
     17487       141  PMPE      C22            17.6723168514       21.7818173541      -13.1366856613  MEMB      141             0.0000000000
     17488       141  PMPE      H2R            17.7131802736       20.7797792716      -12.6585949123  MEMB      141             0.0000000000
     17489       141  PMPE      H2S            17.1448128495       21.5681444462      -14.0908368903  MEMB      141             0.0000000000
     17490       141  PMPE      C3             20.3152160323       24.5393984196      -14.8852676416  MEMB      141             0.0000000000
     17491       141  PMPE      HX             19.2620723003       24.8897508888      -14.9348898989  MEMB      141             0.0000000000
     17492       141  PMPE      HY             20.8091804282       25.0953899080      -15.7106121396  MEMB      141             0.0000000000
     17493       141  PMPE      O31            20.9668046166       24.8881340252      -13.6490587469  MEMB      141             0.0000000000
     17494       141  PMPE      C31            22.2623865459       24.7028183541      -13.5980947425  MEMB      141             0.0000000000
     17495       141  PMPE      O32            23.0005350884       24.4824359074      -14.5629462508  MEMB      141             0.0000000000
     17496       141  PMPE      C32            22.7764260675       24.6927852681      -12.1235025915  MEMB      141             0.0000000000
     17497       141  PMPE      H2X            22.8097778929       25.7399671468      -11.7538827177  MEMB      141             0.0000000000
     17498       141  PMPE      H2Y            23.8092611009       24.2849368213      -12.1586115155  MEMB      141             0.0000000000
     17499       141  PMPE      C23            17.0798000396       22.7092464549      -12.0964141698  MEMB      141             0.0000000000
     17500       141  PMPE      H3R            15.9721282648       22.6381088459      -12.1446161519  MEMB      141             0.0000000000
     17501       141  PMPE      H3S            17.2908406744       23.7756566072      -12.3256568551  MEMB      141             0.0000000000
     17502       141  PMPE      C24            17.5760174181       22.3745104250      -10.6940695309  MEMB      141             0.0000000000
     17503       141  PMPE      H4R            17.8007855288       23.3383146912      -10.1892117363  MEMB      141             0.0000000000
     17504       141  PMPE      H4S            18.5301324414       21.8143122491      -10.7948844836  MEMB      141             0.0000000000
     17505       141  PMPE      C25            16.6981729437       21.4108057013       -9.8812206852  MEMB      141             0.0000000000
     17506       141  PMPE      H5R            16.3951903340       20.5044614074      -10.4478446178  MEMB      141             0.0000000000
     17507       141  PMPE      H5S            15.7729495638       22.0149661681       -9.7660139282  MEMB      141             0.0000000000
     17508       141  PMPE      C26            17.3325809496       20.9154051995       -8.5746365513  MEMB      141             0.0000000000
     17509       141  PMPE      H6R            17.7212014179       21.8587339332       -8.1348348158  MEMB      141             0.0000000000
     17510       141  PMPE      H6S            18.2257470427       20.2759083068       -8.7408276051  MEMB      141             0.0000000000
     17511       141  PMPE      C27            16.3180744301       20.2714024168       -7.6691442451  MEMB      141             0.0000000000
     17512       141  PMPE      H7R            16.0715294750       19.2184328577       -7.9236869269  MEMB      141             0.0000000000
     17513       141  PMPE      H7S            15.3258333500       20.7574403452       -7.7855299943  MEMB      141             0.0000000000
     17514       141  PMPE      C28            16.6132205441       20.2788353064       -6.1715856851  MEMB      141             0.0000000000
     17515       141  PMPE      H8R            16.7863110848       21.3324205411       -5.8644716770  MEMB      141             0.0000000000
     17516       141  PMPE      H8S            17.5832416365       19.7508677694       -6.0506299323  MEMB      141             0.0000000000
     17517       141  PMPE      C29            15.5246420764       19.6820767602       -5.3339873078  MEMB      141             0.0000000000
     17518       141  PMPE      H9R            14.8654433350       18.9290214662       -5.8163620143  MEMB      141             0.0000000000
     17519       141  PMPE      C217           14.8269402809       20.5413229712       -4.2890365962  MEMB      141             0.0000000000
     17520       141  PMPE      H17R           13.8000791075       20.2391580522       -4.1242886196  MEMB      141             0.0000000000
     17521       141  PMPE      H17S           15.2217185453       21.5449218981       -4.1898980146  MEMB      141             0.0000000000
     17522       141  PMPE      C210           15.8062163540       19.4208044258       -3.8677375164  MEMB      141             0.0000000000
     17523       141  PMPE      H10R           15.2545309357       18.5793100669       -3.3967261772  MEMB      141             0.0000000000
     17524       141  PMPE      C211           17.1634463233       19.7387993380       -3.2863535400  MEMB      141             0.0000000000
     17525       141  PMPE      H11R           17.5354396943       20.7502083248       -3.5565270198  MEMB      141             0.0000000000
     17526       141  PMPE      H11S           17.9054991137       19.1268969501       -3.8424597151  MEMB      141             0.0000000000
     17527       141  PMPE      C212           17.4576232357       19.5193833160       -1.8251722365  MEMB      141             0.0000000000
     17528       141  PMPE      H12R           18.4350473099       19.9747903616       -1.5576517419  MEMB      141             0.0000000000
     17529       141  PMPE      H12S           17.6060698652       18.4264486546       -1.6918356462  MEMB      141             0.0000000000
     17530       141  PMPE      C213           16.3592314757       19.8924754040       -0.8595704068  MEMB      141             0.0000000000
     17531       141  PMPE      H13R           15.3642569713       19.5721657339       -1.2360658625  MEMB      141             0.0000000000
     17532       141  PMPE      H13S           16.3726015238       20.9979651499       -0.9692737445  MEMB      141             0.0000000000
     17533       141  PMPE      C214           16.5383380256       19.5272342772        0.6154884642  MEMB      141             0.0000000000
     17534       141  PMPE      H14R           16.6969789975       18.4456083576        0.8135794084  MEMB      141             0.0000000000
     17535       141  PMPE      H14S           15.6586153109       20.0013155993        1.1009323542  MEMB      141             0.0000000000
     17536       141  PMPE      C215           17.7611264839       20.1737430884        1.2047999505  MEMB      141             0.0000000000
     17537       141  PMPE      H15R           17.9478167334       21.1748728661        0.7607213247  MEMB      141             0.0000000000
     17538       141  PMPE      H15S           18.6135693914       19.4980872738        0.9786333752  MEMB      141             0.0000000000
     17539       141  PMPE      C216           17.6547994905       20.1462016037        2.7449584780  MEMB      141             0.0000000000
     17540       141  PMPE      H16R           17.0949025627       20.9754150000        3.2279091186  MEMB      141             0.0000000000
     17541       141  PMPE      H16S           17.0896091410       19.2136853374        2.9577839244  MEMB      141             0.0000000000
     17542       141  PMPE      H16T           18.6873062616       20.1524227905        3.1550962106  MEMB      141             0.0000000000
     17543       141  PMPE      C33            22.1415147543       23.8347699387      -11.0991538828  MEMB      141             0.0000000000
     17544       141  PMPE      H3X            22.9237444718       23.9426552238      -10.3176183006  MEMB      141             0.0000000000
     17545       141  PMPE      H3Y            21.8735723606       22.7793178443      -11.3194915190  MEMB      141             0.0000000000
     17546       141  PMPE      C34            20.8601240397       24.6201209425      -10.5531512873  MEMB      141             0.0000000000
     17547       141  PMPE      H4X            20.0299714047       24.4502636230      -11.2717030343  MEMB      141             0.0000000000
     17548       141  PMPE      H4Y            20.9685277199       25.6858003349      -10.2583684499  MEMB      141             0.0000000000
     17549       141  PMPE      C35            20.4137144293       24.0376012751       -9.1348344150  MEMB      141             0.0000000000
     17550       141  PMPE      H5X            20.1258471077       22.9648928586       -9.1622211364  MEMB      141             0.0000000000
     17551       141  PMPE      H5Y            19.3553956992       24.3754904608       -9.1454769322  MEMB      141             0.0000000000
     17552       141  PMPE      C36            21.2875417432       24.6694671990       -7.9686151411  MEMB      141             0.0000000000
     17553       141  PMPE      H6X            22.1207064472       25.1562852920       -8.5192200589  MEMB      141             0.0000000000
     17554       141  PMPE      H6Y            21.8330890040       23.8599782086       -7.4381188417  MEMB      141             0.0000000000
     17555       141  PMPE      C37            20.4714132447       25.6952579181       -7.0130423189  MEMB      141             0.0000000000
     17556       141  PMPE      H7X            20.0922293808       26.4381962763       -7.7469244446  MEMB      141             0.0000000000
     17557       141  PMPE      H7Y            21.2049852689       26.1804993806       -6.3342683436  MEMB      141             0.0000000000
     17558       141  PMPE      C38            19.2408880761       25.1464498466       -6.3517041554  MEMB      141             0.0000000000
     17559       141  PMPE      H8X            18.6854217634       24.4274434793       -6.9910845041  MEMB      141             0.0000000000
     17560       141  PMPE      H8Y            18.3917968882       25.8376948361       -6.1631682662  MEMB      141             0.0000000000
     17561       141  PMPE      C39            19.5615078218       24.5075626554       -5.0193655019  MEMB      141             0.0000000000
     17562       141  PMPE      H9X            20.5203142737       24.8930137017       -4.6113963129  MEMB      141             0.0000000000
     17563       141  PMPE      H9Y            19.7591841246       23.4264575262       -5.1820212358  MEMB      141             0.0000000000
     17564       141  PMPE      C310           18.5707660043       24.8005375488       -3.9121544103  MEMB      141             0.0000000000
     17565       141  PMPE      H10X           17.5769382137       24.6211613620       -4.3752441744  MEMB      141             0.0000000000
     17566       141  PMPE      H10Y           18.8011998776       25.8175442655       -3.5288554870  MEMB      141             0.0000000000
     17567       141  PMPE      C311           18.7417681945       23.8657067185       -2.6790910913  MEMB      141             0.0000000000
     17568       141  PMPE      H11X           19.5517126755       24.3096738266       -2.0616746090  MEMB      141             0.0000000000
     17569       141  PMPE      H11Y           19.0843639525       22.8629387415       -3.0128667877  MEMB      141             0.0000000000
     17570       141  PMPE      C312           17.4266845303       23.6646817441       -1.8419054108  MEMB      141             0.0000000000
     17571       141  PMPE      H12X           17.6843869905       22.8284144809       -1.1573855950  MEMB      141             0.0000000000
     17572       141  PMPE      H12Y           16.7194366938       23.0170267839       -2.4028537498  MEMB      141             0.0000000000
     17573       141  PMPE      C313           16.9733964687       24.9702507966       -1.1297758880  MEMB      141             0.0000000000
     17574       141  PMPE      H13X           16.9705348475       25.7822140521       -1.8880816917  MEMB      141             0.0000000000
     17575       141  PMPE      H13Y           17.7306667059       25.3963321265       -0.4374480350  MEMB      141             0.0000000000
     17576       141  PMPE      C314           15.5769487408       24.7715113355       -0.4744651713  MEMB      141             0.0000000000
     17577       141  PMPE      H14X           14.8858451707       24.4869548792       -1.2964907672  MEMB      141             0.0000000000
     17578       141  PMPE      H14Y           15.3090797133       25.7209040231        0.0366319739  MEMB      141             0.0000000000
     17579       141  PMPE      C315           15.5819370095       23.7138160895        0.6601923803  MEMB      141             0.0000000000
     17580       141  PMPE      H15X           16.0736249340       22.8191804036        0.2217964994  MEMB      141             0.0000000000
     17581       141  PMPE      H15Y           14.5932304727       23.3101246321        0.9664821408  MEMB      141             0.0000000000
     17582       141  PMPE      C316           16.3046664019       24.1242669093        1.9765387629  MEMB      141             0.0000000000
     17583       141  PMPE      H16X           16.3013579770       23.3689644699        2.7912958756  MEMB      141             0.0000000000
     17584       141  PMPE      H16Y           15.9239835444       25.1167292603        2.2996785559  MEMB      141             0.0000000000
     17585       141  PMPE      H16Z           17.4129756120       24.2012328992        1.9834585112  MEMB      141             0.0000000000
     17586       142  PMPG      C13           -24.8688801722       13.1305894453      -17.4872005668  MEMB      142             0.0000000000
     17587       142  PMPG      H13A          -23.9336958413       13.6332253557      -17.1599264695  MEMB      142             0.0000000000
     17588       142  PMPG      H13B          -25.6322423918       12.9683035751      -16.6964651981  MEMB      142             0.0000000000
     17589       142  PMPG      OC3           -24.5958504329       11.7592522429      -17.9748815197  MEMB      142             0.0000000000
     17590       142  PMPG      HO3           -25.3468687496       11.5320773171      -18.5280207749  MEMB      142             0.0000000000
     17591       142  PMPG      C12           -25.3115952988       14.0015276218      -18.6927090340  MEMB      142             0.0000000000
     17592       142  PMPG      H12A          -26.2823165068       13.5926752477      -19.0578379327  MEMB      142             0.0000000000
     17593       142  PMPG      OC2           -24.3610265557       13.8933680967      -19.7532567565  MEMB      142             0.0000000000
     17594       142  PMPG      HO2           -24.6638353421       14.5754941470      -20.3917923704  MEMB      142             0.0000000000
     17595       142  PMPG      C11           -25.5229273006       15.4402251260      -18.3211053910  MEMB      142             0.0000000000
     17596       142  PMPG      H11A          -24.7078742952       15.7743540531      -17.6440769520  MEMB      142             0.0000000000
     17597       142  PMPG      H11B          -26.4447367164       15.6090299194      -17.7243697397  MEMB      142             0.0000000000
     17598       142  PMPG      P             -24.8783849214       17.4526285647      -19.6373054293  MEMB      142             0.0000000000
     17599       142  PMPG      O13           -25.3862083110       18.2754740480      -20.7272902220  MEMB      142             0.0000000000
     17600       142  PMPG      O14           -23.4294380642       17.0040087073      -19.5857755227  MEMB      142             0.0000000000
     17601       142  PMPG      O11           -25.2373586888       18.1407247879      -18.2956258293  MEMB      142             0.0000000000
     17602       142  PMPG      O12           -25.7164982522       16.1522623626      -19.5248497539  MEMB      142             0.0000000000
     17603       142  PMPG      C1            -25.2949287770       19.5773741797      -18.2342935705  MEMB      142             0.0000000000
     17604       142  PMPG      HA            -26.2953625507       20.0605419369      -18.2328141818  MEMB      142             0.0000000000
     17605       142  PMPG      HB            -24.6285375828       20.0778162349      -18.9690055535  MEMB      142             0.0000000000
     17606       142  PMPG      C2            -24.5935149047       19.9066479640      -16.8367870910  MEMB      142             0.0000000000
     17607       142  PMPG      HS            -24.1665557676       20.9086574064      -17.0558854058  MEMB      142             0.0000000000
     17608       142  PMPG      O21           -23.5722327293       18.8796592214      -16.6091116370  MEMB      142             0.0000000000
     17609       142  PMPG      C21           -22.5369833714       19.2171270706      -15.7684495778  MEMB      142             0.0000000000
     17610       142  PMPG      O22           -22.2943490102       20.2831365310      -15.2332908101  MEMB      142             0.0000000000
     17611       142  PMPG      C22           -21.6396397834       17.9992880660      -15.6027240472  MEMB      142             0.0000000000
     17612       142  PMPG      H2R           -20.8322981906       18.1922934553      -14.8643003220  MEMB      142             0.0000000000
     17613       142  PMPG      H2S           -21.1249992096       17.7293343164      -16.5496088928  MEMB      142             0.0000000000
     17614       142  PMPG      C3            -25.5637544884       19.9545284252      -15.6818863068  MEMB      142             0.0000000000
     17615       142  PMPG      HX            -26.3524274916       20.6672397845      -16.0049321115  MEMB      142             0.0000000000
     17616       142  PMPG      HY            -25.0667884056       20.4419161149      -14.8159774287  MEMB      142             0.0000000000
     17617       142  PMPG      O31           -26.0727234945       18.6535736677      -15.4010986226  MEMB      142             0.0000000000
     17618       142  PMPG      C31           -26.9466459163       18.6475740451      -14.4019647991  MEMB      142             0.0000000000
     17619       142  PMPG      O32           -27.2552846564       19.6110150507      -13.7306315151  MEMB      142             0.0000000000
     17620       142  PMPG      C32           -27.5248451850       17.2899891126      -14.2482236149  MEMB      142             0.0000000000
     17621       142  PMPG      H2X           -28.3505796775       17.2381235193      -14.9897043356  MEMB      142             0.0000000000
     17622       142  PMPG      H2Y           -27.9550857019       17.3475339699      -13.2255300117  MEMB      142             0.0000000000
     17623       142  PMPG      C23           -22.3803158538       16.7702893523      -15.0707827766  MEMB      142             0.0000000000
     17624       142  PMPG      H3R           -21.6829386721       15.9056112118      -15.0886124129  MEMB      142             0.0000000000
     17625       142  PMPG      H3S           -23.2693528306       16.5284478144      -15.6916264973  MEMB      142             0.0000000000
     17626       142  PMPG      C24           -22.8076449513       16.9808506429      -13.6065677471  MEMB      142             0.0000000000
     17627       142  PMPG      H4R           -23.3825356581       16.1422436103      -13.1587281792  MEMB      142             0.0000000000
     17628       142  PMPG      H4S           -23.5069969672       17.8268622581      -13.7783001948  MEMB      142             0.0000000000
     17629       142  PMPG      C25           -21.6984107887       17.4413153191      -12.6177318260  MEMB      142             0.0000000000
     17630       142  PMPG      H5R           -21.0940485827       18.3703641056      -12.6947757309  MEMB      142             0.0000000000
     17631       142  PMPG      H5S           -20.9215586225       16.6494030554      -12.5569342466  MEMB      142             0.0000000000
     17632       142  PMPG      C26           -22.1677598284       17.6184286883      -11.1638904814  MEMB      142             0.0000000000
     17633       142  PMPG      H6R           -21.3371593404       17.8082503793      -10.4508750524  MEMB      142             0.0000000000
     17634       142  PMPG      H6S           -22.6622665947       16.6896654851      -10.8072640755  MEMB      142             0.0000000000
     17635       142  PMPG      C27           -23.2794111919       18.6552971808      -11.0630257720  MEMB      142             0.0000000000
     17636       142  PMPG      H7R           -24.2204716618       18.5014165218      -11.6331544807  MEMB      142             0.0000000000
     17637       142  PMPG      H7S           -22.8604951856       19.5752988042      -11.5239244439  MEMB      142             0.0000000000
     17638       142  PMPG      C28           -23.7325768738       19.0363243872       -9.6372452520  MEMB      142             0.0000000000
     17639       142  PMPG      H8R           -22.8504567025       19.1467145010       -8.9709123607  MEMB      142             0.0000000000
     17640       142  PMPG      H8S           -24.3037142854       18.2198515767       -9.1458236590  MEMB      142             0.0000000000
     17641       142  PMPG      C29           -24.4270419665       20.3453878964       -9.6136850733  MEMB      142             0.0000000000
     17642       142  PMPG      H9R           -23.9834492078       21.2089952724      -10.1538037601  MEMB      142             0.0000000000
     17643       142  PMPG      C217          -25.9293613167       20.2168544990       -9.8179532661  MEMB      142             0.0000000000
     17644       142  PMPG      H17R          -26.1876516312       20.9920501608      -10.5287607445  MEMB      142             0.0000000000
     17645       142  PMPG      H17S          -26.2252138904       19.1759197104       -9.8605540944  MEMB      142             0.0000000000
     17646       142  PMPG      C210          -25.2820958553       20.6856950795       -8.4475017032  MEMB      142             0.0000000000
     17647       142  PMPG      H10R          -25.5926498490       21.7318574775       -8.2391220194  MEMB      142             0.0000000000
     17648       142  PMPG      C211          -25.6761397010       19.7638025556       -7.2555033872  MEMB      142             0.0000000000
     17649       142  PMPG      H11R          -26.5189283778       20.1746893336       -6.6595161314  MEMB      142             0.0000000000
     17650       142  PMPG      H11S          -26.0148410067       18.7822578594       -7.6506901960  MEMB      142             0.0000000000
     17651       142  PMPG      C212          -24.5274857975       19.5098317579       -6.2842347205  MEMB      142             0.0000000000
     17652       142  PMPG      H12R          -24.4064356524       20.4099011990       -5.6442800001  MEMB      142             0.0000000000
     17653       142  PMPG      H12S          -23.5791692212       19.2345659770       -6.7933956061  MEMB      142             0.0000000000
     17654       142  PMPG      C213          -24.8773724438       18.4124717584       -5.3202764255  MEMB      142             0.0000000000
     17655       142  PMPG      H13R          -24.7487783672       17.4853822323       -5.9188498262  MEMB      142             0.0000000000
     17656       142  PMPG      H13S          -25.8944576467       18.5007061182       -4.8820142138  MEMB      142             0.0000000000
     17657       142  PMPG      C214          -23.8533276972       18.4312850367       -4.1637408053  MEMB      142             0.0000000000
     17658       142  PMPG      H14R          -22.7879008042       18.4744339780       -4.4757095901  MEMB      142             0.0000000000
     17659       142  PMPG      H14S          -23.9416626176       17.4555463446       -3.6398594194  MEMB      142             0.0000000000
     17660       142  PMPG      C215          -23.9896538562       19.5805460291       -3.1203217685  MEMB      142             0.0000000000
     17661       142  PMPG      H15R          -23.7573191617       20.5742067553       -3.5596160950  MEMB      142             0.0000000000
     17662       142  PMPG      H15S          -23.1996134620       19.4644658160       -2.3478692097  MEMB      142             0.0000000000
     17663       142  PMPG      C216          -25.4053019098       19.6920699083       -2.4775086398  MEMB      142             0.0000000000
     17664       142  PMPG      H16R          -26.0552342756       20.1700173225       -3.2413637636  MEMB      142             0.0000000000
     17665       142  PMPG      H16S          -25.4215046010       20.3651884820       -1.5937841971  MEMB      142             0.0000000000
     17666       142  PMPG      H16T          -25.8462779971       18.7030340451       -2.2291762101  MEMB      142             0.0000000000
     17667       142  PMPG      C33           -26.4238526452       16.1413600599      -14.3058588950  MEMB      142             0.0000000000
     17668       142  PMPG      H3X           -25.4672255733       16.5074990722      -13.8755939327  MEMB      142             0.0000000000
     17669       142  PMPG      H3Y           -26.2107918438       16.0247731261      -15.3899869230  MEMB      142             0.0000000000
     17670       142  PMPG      C34           -26.7417546797       14.9130210993      -13.6008286860  MEMB      142             0.0000000000
     17671       142  PMPG      H4X           -26.0923060720       14.0715442153      -13.9240215533  MEMB      142             0.0000000000
     17672       142  PMPG      H4Y           -27.7583212573       14.4927488484      -13.7566632598  MEMB      142             0.0000000000
     17673       142  PMPG      C35           -26.4689171158       15.2101543125      -12.1104678507  MEMB      142             0.0000000000
     17674       142  PMPG      H5X           -27.4782599461       15.3471607357      -11.6668721493  MEMB      142             0.0000000000
     17675       142  PMPG      H5Y           -25.9463550252       16.1531836746      -11.8422413588  MEMB      142             0.0000000000
     17676       142  PMPG      C36           -25.7665565161       13.9590818266      -11.5434625863  MEMB      142             0.0000000000
     17677       142  PMPG      H6X           -25.1221056699       13.3865114618      -12.2442960468  MEMB      142             0.0000000000
     17678       142  PMPG      H6Y           -26.4127873351       13.1952909687      -11.0604201803  MEMB      142             0.0000000000
     17679       142  PMPG      C37           -24.8432393732       14.3113730185      -10.3658617555  MEMB      142             0.0000000000
     17680       142  PMPG      H7X           -23.9366853706       14.8814400662      -10.6616734475  MEMB      142             0.0000000000
     17681       142  PMPG      H7Y           -24.5071014445       13.3479534773       -9.9263678357  MEMB      142             0.0000000000
     17682       142  PMPG      C38           -25.4881071573       15.1868751786       -9.2443226396  MEMB      142             0.0000000000
     17683       142  PMPG      H8X           -25.7741635907       16.1748529361       -9.6643138250  MEMB      142             0.0000000000
     17684       142  PMPG      H8Y           -24.7103860185       15.2732387611       -8.4556452995  MEMB      142             0.0000000000
     17685       142  PMPG      C39           -26.6700100704       14.5114898762       -8.5097701584  MEMB      142             0.0000000000
     17686       142  PMPG      H9X           -26.3244487800       13.4847604575       -8.2633249135  MEMB      142             0.0000000000
     17687       142  PMPG      H9Y           -27.4844240565       14.3814640964       -9.2541788231  MEMB      142             0.0000000000
     17688       142  PMPG      C310          -27.1147446241       15.2265135985       -7.2791300485  MEMB      142             0.0000000000
     17689       142  PMPG      H10X          -27.8406885187       16.0262106483       -7.5395356193  MEMB      142             0.0000000000
     17690       142  PMPG      H10Y          -26.3100133956       15.6133049408       -6.6179782752  MEMB      142             0.0000000000
     17691       142  PMPG      C311          -27.8267708367       14.2909594362       -6.3117682436  MEMB      142             0.0000000000
     17692       142  PMPG      H11X          -27.1280428371       13.4654799942       -6.0574377656  MEMB      142             0.0000000000
     17693       142  PMPG      H11Y          -28.6149417304       13.8675868107       -6.9704514870  MEMB      142             0.0000000000
     17694       142  PMPG      C312          -28.3640897030       14.8989354783       -4.9561333875  MEMB      142             0.0000000000
     17695       142  PMPG      H12X          -28.7391619168       13.9581124010       -4.4995223084  MEMB      142             0.0000000000
     17696       142  PMPG      H12Y          -29.2023739806       15.5836325859       -5.2067134362  MEMB      142             0.0000000000
     17697       142  PMPG      C313          -27.2981820246       15.6140969278       -4.1757636973  MEMB      142             0.0000000000
     17698       142  PMPG      H13X          -26.9405439444       16.5761683358       -4.6010104719  MEMB      142             0.0000000000
     17699       142  PMPG      H13Y          -26.3695438367       15.0108037650       -4.0863766731  MEMB      142             0.0000000000
     17700       142  PMPG      C314          -27.6920712840       15.9706675210       -2.6854964989  MEMB      142             0.0000000000
     17701       142  PMPG      H14X          -26.7147124169       16.2571024941       -2.2415978764  MEMB      142             0.0000000000
     17702       142  PMPG      H14Y          -28.1351339735       15.1454109602       -2.0880277979  MEMB      142             0.0000000000
     17703       142  PMPG      C315          -28.7747145020       17.1055001033       -2.6125515670  MEMB      142             0.0000000000
     17704       142  PMPG      H15X          -29.5353118994       16.9531305077       -3.4079106742  MEMB      142             0.0000000000
     17705       142  PMPG      H15Y          -28.2971766360       18.1028857691       -2.7197921753  MEMB      142             0.0000000000
     17706       142  PMPG      C316          -29.4843219566       17.1829403324       -1.2350855576  MEMB      142             0.0000000000
     17707       142  PMPG      H16X          -28.7120410422       17.2133986793       -0.4369773993  MEMB      142             0.0000000000
     17708       142  PMPG      H16Y          -30.1124296678       16.2903446932       -1.0275405755  MEMB      142             0.0000000000
     17709       142  PMPG      H16Z          -30.2344365097       17.9996856797       -1.1674352285  MEMB      142             0.0000000000
     17710       143  PMPE      N              25.0292697745      -10.2103361748      -18.8867390559  MEMB      143             0.0000000000
     17711       143  PMPE      HN1            24.3000435168       -9.5712776880      -18.5106623789  MEMB      143             0.0000000000
     17712       143  PMPE      HN2            25.2443755106       -9.8355955737      -19.8327301618  MEMB      143             0.0000000000
     17713       143  PMPE      HN3            24.6828647860      -11.1761068579      -19.0567108791  MEMB      143             0.0000000000
     17714       143  PMPE      C12            26.1992130781      -10.2145464504      -17.8928087210  MEMB      143             0.0000000000
     17715       143  PMPE      H12A           25.8333971580      -10.5357777451      -16.8941545428  MEMB      143             0.0000000000
     17716       143  PMPE      H12B           26.5859381209       -9.1804049617      -18.0165656405  MEMB      143             0.0000000000
     17717       143  PMPE      C11            27.2518156826      -11.2228020122      -18.3573776823  MEMB      143             0.0000000000
     17718       143  PMPE      H11A           26.7976515372      -12.1859240825      -18.6743191884  MEMB      143             0.0000000000
     17719       143  PMPE      H11B           27.8488817394      -11.3587747895      -17.4303693015  MEMB      143             0.0000000000
     17720       143  PMPE      P              29.5673782073      -11.2837469754      -19.4360652367  MEMB      143             0.0000000000
     17721       143  PMPE      O13            30.3167535258      -10.5770579573      -20.5156052950  MEMB      143             0.0000000000
     17722       143  PMPE      O14            29.4272676252      -12.7571144123      -19.5064015633  MEMB      143             0.0000000000
     17723       143  PMPE      O11            30.2579377943      -11.0425484679      -18.0657398107  MEMB      143             0.0000000000
     17724       143  PMPE      O12            28.1353339161      -10.6714291548      -19.3392626381  MEMB      143             0.0000000000
     17725       143  PMPE      C1             30.4909236223       -9.6124431742      -17.7129669206  MEMB      143             0.0000000000
     17726       143  PMPE      HA             29.5766733685       -9.0225535342      -17.9376840790  MEMB      143             0.0000000000
     17727       143  PMPE      HB             31.2524159266       -9.0836981783      -18.3252406160  MEMB      143             0.0000000000
     17728       143  PMPE      C2             30.7231466317       -9.4392407706      -16.2544074990  MEMB      143             0.0000000000
     17729       143  PMPE      HS             31.6136459818      -10.0487176453      -15.9900782577  MEMB      143             0.0000000000
     17730       143  PMPE      O21            29.5276634227       -9.9304568755      -15.6424045755  MEMB      143             0.0000000000
     17731       143  PMPE      C21            29.6417656796      -10.7515410352      -14.6104275466  MEMB      143             0.0000000000
     17732       143  PMPE      O22            30.6889319781      -11.1548554035      -14.0915653838  MEMB      143             0.0000000000
     17733       143  PMPE      C22            28.1518477227      -11.1606164092      -14.2372866204  MEMB      143             0.0000000000
     17734       143  PMPE      H2R            27.9581301728      -12.0090545382      -14.9279000718  MEMB      143             0.0000000000
     17735       143  PMPE      H2S            27.3488022217      -10.4364576652      -14.4923024131  MEMB      143             0.0000000000
     17736       143  PMPE      C3             30.8983751709       -7.9670523925      -15.9064008726  MEMB      143             0.0000000000
     17737       143  PMPE      HX             30.1005836576       -7.3679547265      -16.3952074588  MEMB      143             0.0000000000
     17738       143  PMPE      HY             31.7899600698       -7.5098846770      -16.3863950797  MEMB      143             0.0000000000
     17739       143  PMPE      O31            30.8444616891       -7.6242254807      -14.5007117219  MEMB      143             0.0000000000
     17740       143  PMPE      C31            32.0000024125       -7.7411736794      -13.8892150531  MEMB      143             0.0000000000
     17741       143  PMPE      O32            33.0281291053       -8.2851898199      -14.1910551354  MEMB      143             0.0000000000
     17742       143  PMPE      C32            31.8118640214       -7.1502096274      -12.4407470569  MEMB      143             0.0000000000
     17743       143  PMPE      H2X            31.8204739944       -6.0424943397      -12.5256815256  MEMB      143             0.0000000000
     17744       143  PMPE      H2Y            32.5947771151       -7.5214170428      -11.7453533558  MEMB      143             0.0000000000
     17745       143  PMPE      C23            28.0183391263      -11.7027005875      -12.8553752023  MEMB      143             0.0000000000
     17746       143  PMPE      H3R            28.4494696052      -10.9099427347      -12.2073148365  MEMB      143             0.0000000000
     17747       143  PMPE      H3S            28.5474167788      -12.6686302686      -12.7091643434  MEMB      143             0.0000000000
     17748       143  PMPE      C24            26.5703511873      -11.8089252169      -12.3098876617  MEMB      143             0.0000000000
     17749       143  PMPE      H4R            26.0082390180      -12.6778874230      -12.7139365094  MEMB      143             0.0000000000
     17750       143  PMPE      H4S            26.0494044482      -10.8516653311      -12.5257326250  MEMB      143             0.0000000000
     17751       143  PMPE      C25            26.6700450799      -11.8277238774      -10.7964757966  MEMB      143             0.0000000000
     17752       143  PMPE      H5R            27.4899643677      -12.5360654740      -10.5509043073  MEMB      143             0.0000000000
     17753       143  PMPE      H5S            25.7379413696      -12.1310836051      -10.2735268132  MEMB      143             0.0000000000
     17754       143  PMPE      C26            26.8674621467      -10.4050921743      -10.2503368409  MEMB      143             0.0000000000
     17755       143  PMPE      H6R            25.8835254414       -9.8891752485      -10.2547336324  MEMB      143             0.0000000000
     17756       143  PMPE      H6S            27.5221050872       -9.7583284347      -10.8728003954  MEMB      143             0.0000000000
     17757       143  PMPE      C27            27.5129542023      -10.5071267949       -8.8203504622  MEMB      143             0.0000000000
     17758       143  PMPE      H7R            28.5901618800      -10.7651414229       -8.9062169691  MEMB      143             0.0000000000
     17759       143  PMPE      H7S            27.1381217167      -11.3903864954       -8.2602846015  MEMB      143             0.0000000000
     17760       143  PMPE      C28            27.4355437081       -9.2315434969       -7.9713897693  MEMB      143             0.0000000000
     17761       143  PMPE      H8R            28.0508040741       -8.5096649940       -8.5498936876  MEMB      143             0.0000000000
     17762       143  PMPE      H8S            27.9638538131       -9.4187945112       -7.0121467181  MEMB      143             0.0000000000
     17763       143  PMPE      C29            26.0714666657       -8.6520687497       -7.8954890321  MEMB      143             0.0000000000
     17764       143  PMPE      H9R            25.7526540347       -8.0046158379       -8.7401687607  MEMB      143             0.0000000000
     17765       143  PMPE      C217           25.9576274662       -7.8434710635       -6.6398697442  MEMB      143             0.0000000000
     17766       143  PMPE      H17R           25.4466738983       -6.8981696267       -6.7748526324  MEMB      143             0.0000000000
     17767       143  PMPE      H17S           26.8268139126       -7.9907382787       -6.0108098241  MEMB      143             0.0000000000
     17768       143  PMPE      C210           25.0579708946       -9.0380572057       -6.9246771496  MEMB      143             0.0000000000
     17769       143  PMPE      H10R           24.0308181236       -8.6803225396       -7.1511807219  MEMB      143             0.0000000000
     17770       143  PMPE      C211           25.2133767501      -10.3587000910       -6.2419777914  MEMB      143             0.0000000000
     17771       143  PMPE      H11R           26.1342641826      -10.3742872748       -5.6206528396  MEMB      143             0.0000000000
     17772       143  PMPE      H11S           25.2304171873      -11.1647036257       -7.0064314525  MEMB      143             0.0000000000
     17773       143  PMPE      C212           23.9911210219      -10.7291673124       -5.3194660139  MEMB      143             0.0000000000
     17774       143  PMPE      H12R           24.3254695622      -11.6556871676       -4.8055662696  MEMB      143             0.0000000000
     17775       143  PMPE      H12S           23.1564606089      -10.9759936445       -6.0099291833  MEMB      143             0.0000000000
     17776       143  PMPE      C213           23.5022030346       -9.6881494027       -4.3818245956  MEMB      143             0.0000000000
     17777       143  PMPE      H13R           22.4896355737       -9.9480661401       -4.0056975353  MEMB      143             0.0000000000
     17778       143  PMPE      H13S           23.4951671326       -8.7038909611       -4.8970976982  MEMB      143             0.0000000000
     17779       143  PMPE      C214           24.4664411831       -9.4395030525       -3.1903786957  MEMB      143             0.0000000000
     17780       143  PMPE      H14R           25.4690850304       -9.2026669612       -3.6062336614  MEMB      143             0.0000000000
     17781       143  PMPE      H14S           24.5936955971      -10.3307022676       -2.5393094119  MEMB      143             0.0000000000
     17782       143  PMPE      C215           24.0117068167       -8.3713138116       -2.1590039750  MEMB      143             0.0000000000
     17783       143  PMPE      H15R           22.9166131128       -8.5416830228       -2.0811228096  MEMB      143             0.0000000000
     17784       143  PMPE      H15S           24.1126029451       -7.3375309987       -2.5532560485  MEMB      143             0.0000000000
     17785       143  PMPE      C216           24.5371250853       -8.5104919407       -0.7648859609  MEMB      143             0.0000000000
     17786       143  PMPE      H16R           25.5762043069       -8.1450269401       -0.6197288956  MEMB      143             0.0000000000
     17787       143  PMPE      H16S           23.9079803508       -8.0442722335        0.0232362414  MEMB      143             0.0000000000
     17788       143  PMPE      H16T           24.4479247672       -9.5994511923       -0.5635600508  MEMB      143             0.0000000000
     17789       143  PMPE      C33            30.4184703889       -7.5422032638      -11.8986153767  MEMB      143             0.0000000000
     17790       143  PMPE      H3X            30.2443933077       -8.6175007604      -12.1171408126  MEMB      143             0.0000000000
     17791       143  PMPE      H3Y            29.5490160481       -6.9894426012      -12.3143380472  MEMB      143             0.0000000000
     17792       143  PMPE      C34            30.5169929369       -7.3182093807      -10.3393507328  MEMB      143             0.0000000000
     17793       143  PMPE      H4X            29.4653580101       -7.3554023055       -9.9829778355  MEMB      143             0.0000000000
     17794       143  PMPE      H4Y            30.8047504346       -6.2603308879      -10.1593227377  MEMB      143             0.0000000000
     17795       143  PMPE      C35            31.5039702826       -8.1350741203       -9.5253054417  MEMB      143             0.0000000000
     17796       143  PMPE      H5X            32.5237741236       -7.7154597997       -9.6603792364  MEMB      143             0.0000000000
     17797       143  PMPE      H5Y            31.4337336129       -9.1726970096       -9.9161071338  MEMB      143             0.0000000000
     17798       143  PMPE      C36            31.0555460190       -8.1431670277       -8.0503269551  MEMB      143             0.0000000000
     17799       143  PMPE      H6X            29.9640137114       -8.3239509524       -7.9493535875  MEMB      143             0.0000000000
     17800       143  PMPE      H6Y            31.2413008553       -7.1637547246       -7.5598490956  MEMB      143             0.0000000000
     17801       143  PMPE      C37            31.8729717042       -9.1617250071       -7.2127057178  MEMB      143             0.0000000000
     17802       143  PMPE      H7X            32.9469833938       -9.0929902052       -7.4885591500  MEMB      143             0.0000000000
     17803       143  PMPE      H7Y            31.5997876922      -10.2242161382       -7.3882155719  MEMB      143             0.0000000000
     17804       143  PMPE      C38            31.6910691916       -8.9892942455       -5.6938297097  MEMB      143             0.0000000000
     17805       143  PMPE      H8X            32.3117693303       -8.1443089762       -5.3263355711  MEMB      143             0.0000000000
     17806       143  PMPE      H8Y            32.0424415008       -9.9609454953       -5.2854763354  MEMB      143             0.0000000000
     17807       143  PMPE      C39            30.2268400744       -8.7502633587       -5.1978513839  MEMB      143             0.0000000000
     17808       143  PMPE      H9X            29.4871838102       -9.3838499025       -5.7324521742  MEMB      143             0.0000000000
     17809       143  PMPE      H9Y            29.8366737993       -7.7382549484       -5.4385385439  MEMB      143             0.0000000000
     17810       143  PMPE      C310           30.0692372028       -8.9630102844       -3.7055570760  MEMB      143             0.0000000000
     17811       143  PMPE      H10X           30.7619181405       -8.2107300693       -3.2712897397  MEMB      143             0.0000000000
     17812       143  PMPE      H10Y           30.6032519700       -9.8756846112       -3.3647132008  MEMB      143             0.0000000000
     17813       143  PMPE      C311           28.7295362103       -8.7208013908       -3.0528291646  MEMB      143             0.0000000000
     17814       143  PMPE      H11X           28.0873864195       -9.5870339642       -3.3204209249  MEMB      143             0.0000000000
     17815       143  PMPE      H11Y           28.2018348574       -7.8776607581       -3.5477691391  MEMB      143             0.0000000000
     17816       143  PMPE      C312           28.6577990920       -8.3229790510       -1.5835922701  MEMB      143             0.0000000000
     17817       143  PMPE      H12X           27.6131646382       -8.2812922945       -1.2076628964  MEMB      143             0.0000000000
     17818       143  PMPE      H12Y           29.0098955770       -7.2767866106       -1.7094115401  MEMB      143             0.0000000000
     17819       143  PMPE      C313           29.6059546588       -9.0819420989       -0.6331279686  MEMB      143             0.0000000000
     17820       143  PMPE      H13X           30.5331040496       -8.4817646223       -0.7535515934  MEMB      143             0.0000000000
     17821       143  PMPE      H13Y           29.7915524628      -10.0873039406       -1.0680086081  MEMB      143             0.0000000000
     17822       143  PMPE      C314           29.0135336693       -9.0561738208        0.7732837829  MEMB      143             0.0000000000
     17823       143  PMPE      H14X           28.0071288242       -9.4986603364        0.9335219979  MEMB      143             0.0000000000
     17824       143  PMPE      H14Y           29.1793406157       -8.0528654310        1.2207216706  MEMB      143             0.0000000000
     17825       143  PMPE      C315           29.8803970404      -10.0336914688        1.6866589970  MEMB      143             0.0000000000
     17826       143  PMPE      H15X           29.3764514782      -10.0960480314        2.6748261294  MEMB      143             0.0000000000
     17827       143  PMPE      H15Y           30.8591607229       -9.5208411939        1.8021049592  MEMB      143             0.0000000000
     17828       143  PMPE      C316           30.1096320025      -11.5353349915        1.1850707886  MEMB      143             0.0000000000
     17829       143  PMPE      H16X           29.0951431073      -11.9863152339        1.2269043942  MEMB      143             0.0000000000
     17830       143  PMPE      H16Y           30.7612739528      -12.0940191136        1.8904469534  MEMB      143             0.0000000000
     17831       143  PMPE      H16Z           30.2610346812      -11.6039945644        0.0865786098  MEMB      143             0.0000000000
     17832       144  QMPE      N              24.6366883820       16.1948246149      -21.1248119503  MEMB      144             0.0000000000
     17833       144  QMPE      HN1            24.9163913247       16.4063923370      -22.1038958883  MEMB      144             0.0000000000
     17834       144  QMPE      HN2            24.0005138237       15.3772194027      -21.0331397134  MEMB      144             0.0000000000
     17835       144  QMPE      HN3            24.2391492602       17.0864544586      -20.7662607628  MEMB      144             0.0000000000
     17836       144  QMPE      C12            25.9646302121       15.9803660610      -20.4420367761  MEMB      144             0.0000000000
     17837       144  QMPE      H12A           26.6344656115       16.5615172888      -21.1112936162  MEMB      144             0.0000000000
     17838       144  QMPE      H12B           26.2506342469       14.9079131578      -20.4906976824  MEMB      144             0.0000000000
     17839       144  QMPE      C11            25.9730248310       16.5610086489      -18.9917373473  MEMB      144             0.0000000000
     17840       144  QMPE      H11A           27.0211808344       16.4875600763      -18.6307726004  MEMB      144             0.0000000000
     17841       144  QMPE      H11B           25.3621221364       15.8866101248      -18.3543163952  MEMB      144             0.0000000000
     17842       144  QMPE      P              24.4533417091       18.7423851573      -18.3304412640  MEMB      144             0.0000000000
     17843       144  QMPE      O13            23.1508449171       18.3669260261      -18.8818977969  MEMB      144             0.0000000000
     17844       144  QMPE      O14            24.8375759860       20.1562730889      -18.4046626725  MEMB      144             0.0000000000
     17845       144  QMPE      O11            24.5311988791       18.2647079854      -16.8136178781  MEMB      144             0.0000000000
     17846       144  QMPE      O12            25.6142638881       17.8712892623      -19.0107943136  MEMB      144             0.0000000000
     17847       144  QMPE      C1             23.3911028643       18.2970314141      -15.9544292401  MEMB      144             0.0000000000
     17848       144  QMPE      HA             23.4980740599       17.4495370531      -15.2440550269  MEMB      144             0.0000000000
     17849       144  QMPE      HB             22.4831009376       18.0657438361      -16.5513877804  MEMB      144             0.0000000000
     17850       144  QMPE      C2             23.1291030722       19.6343330035      -15.2005545248  MEMB      144             0.0000000000
     17851       144  QMPE      HS             22.6826288103       20.2545867219      -16.0069460468  MEMB      144             0.0000000000
     17852       144  QMPE      O21            24.3527397191       20.3245401156      -14.8534143689  MEMB      144             0.0000000000
     17853       144  QMPE      C21            24.2713171700       21.5901910098      -14.4713050539  MEMB      144             0.0000000000
     17854       144  QMPE      O22            23.3349741676       22.3471367353      -14.6923422341  MEMB      144             0.0000000000
     17855       144  QMPE      C22            25.5489924281       21.9150942494      -13.7371049475  MEMB      144             0.0000000000
     17856       144  QMPE      H2R            26.4093634845       22.1012181491      -14.4149253403  MEMB      144             0.0000000000
     17857       144  QMPE      H2S            25.7991997932       21.0947601366      -13.0308688421  MEMB      144             0.0000000000
     17858       144  QMPE      C3             22.2966133874       19.4856995889      -13.9335801176  MEMB      144             0.0000000000
     17859       144  QMPE      HX             21.3882508073       18.9068721848      -14.2058981776  MEMB      144             0.0000000000
     17860       144  QMPE      HY             21.9051288349       20.4676187325      -13.5916803115  MEMB      144             0.0000000000
     17861       144  QMPE      O31            23.0776175965       18.8558198801      -12.9216151100  MEMB      144             0.0000000000
     17862       144  QMPE      C31            23.2283701787       19.4657819598      -11.7800723784  MEMB      144             0.0000000000
     17863       144  QMPE      O32            22.6473899473       20.4665284841      -11.3868543399  MEMB      144             0.0000000000
     17864       144  QMPE      C32            24.1832393209       18.7027660229      -10.8859924818  MEMB      144             0.0000000000
     17865       144  QMPE      H2X            23.7575880858       17.6923191206      -10.7067190202  MEMB      144             0.0000000000
     17866       144  QMPE      H2Y            25.1271795813       18.5477641964      -11.4510341255  MEMB      144             0.0000000000
     17867       144  QMPE      C23            25.4869671941       23.2556640083      -12.8383840159  MEMB      144             0.0000000000
     17868       144  QMPE      H3R            24.9723361966       24.0432306088      -13.4293279612  MEMB      144             0.0000000000
     17869       144  QMPE      H3S            26.4994041211       23.6317654916      -12.5779226040  MEMB      144             0.0000000000
     17870       144  QMPE      C24            24.7145781508       23.1149367721      -11.5600037143  MEMB      144             0.0000000000
     17871       144  QMPE      H4R            25.2941998548       22.5167269498      -10.8248131214  MEMB      144             0.0000000000
     17872       144  QMPE      H4S            23.8156369445       22.5522528246      -11.8910815239  MEMB      144             0.0000000000
     17873       144  QMPE      C25            24.2006583625       24.3726812162      -10.8731325811  MEMB      144             0.0000000000
     17874       144  QMPE      H5R            23.5612692913       24.9980477564      -11.5322375498  MEMB      144             0.0000000000
     17875       144  QMPE      H5S            25.1094654307       24.9726104455      -10.6529602757  MEMB      144             0.0000000000
     17876       144  QMPE      C26            23.3275722403       24.1608631337       -9.5810408012  MEMB      144             0.0000000000
     17877       144  QMPE      H6R            22.2633404140       23.8817083748       -9.7353270301  MEMB      144             0.0000000000
     17878       144  QMPE      H6S            23.2453617534       25.2082169985       -9.2196375455  MEMB      144             0.0000000000
     17879       144  QMPE      C27            23.9615882084       23.2111939557       -8.5383800729  MEMB      144             0.0000000000
     17880       144  QMPE      H7R            24.8539695207       23.7320043441       -8.1300501918  MEMB      144             0.0000000000
     17881       144  QMPE      H7S            24.3220615762       22.2423499513       -8.9454683956  MEMB      144             0.0000000000
     17882       144  QMPE      C28            22.9635156065       22.9039871071       -7.4325521613  MEMB      144             0.0000000000
     17883       144  QMPE      H8R            23.4354016540       22.1230096743       -6.7987397603  MEMB      144             0.0000000000
     17884       144  QMPE      H8S            22.1005097407       22.4408382276       -7.9569901322  MEMB      144             0.0000000000
     17885       144  QMPE      C29            22.6532780161       24.0810021789       -6.5124611258  MEMB      144             0.0000000000
     17886       144  QMPE      H9R            22.1370111621       24.9732655333       -6.9267748332  MEMB      144             0.0000000000
     17887       144  QMPE      C217           23.5137155277       24.3647512037       -5.3583902036  MEMB      144             0.0000000000
     17888       144  QMPE      H17R           24.3345227148       23.6883349598       -5.1543665866  MEMB      144             0.0000000000
     17889       144  QMPE      H17S           23.6307899892       25.4140797899       -5.1173662083  MEMB      144             0.0000000000
     17890       144  QMPE      C210           22.0785342693       23.7470884895       -5.1488117622  MEMB      144             0.0000000000
     17891       144  QMPE      H10R           21.5610788875       24.6100998216       -4.6778847412  MEMB      144             0.0000000000
     17892       144  QMPE      C211           21.9119870445       22.2927621221       -4.6185628977  MEMB      144             0.0000000000
     17893       144  QMPE      H11R           22.0632647861       21.5420022986       -5.4234206202  MEMB      144             0.0000000000
     17894       144  QMPE      H11S           22.7128303909       22.2860997972       -3.8485458077  MEMB      144             0.0000000000
     17895       144  QMPE      C212           20.4870490393       22.1834338220       -3.9369133303  MEMB      144             0.0000000000
     17896       144  QMPE      H12R           19.8179208644       22.2494275916       -4.8213525311  MEMB      144             0.0000000000
     17897       144  QMPE      H12S           20.3196608988       23.0028208064       -3.2055407946  MEMB      144             0.0000000000
     17898       144  QMPE      C213           20.3649631285       20.8583844892       -3.1952566310  MEMB      144             0.0000000000
     17899       144  QMPE      H13R           21.0300556532       20.0944153655       -3.6516811897  MEMB      144             0.0000000000
     17900       144  QMPE      H13S           19.3429932015       20.4282949001       -3.1251041704  MEMB      144             0.0000000000
     17901       144  QMPE      C214           20.7696502257       20.9652530243       -1.6990911107  MEMB      144             0.0000000000
     17902       144  QMPE      H14R           19.9806592870       21.5481633542       -1.1775277779  MEMB      144             0.0000000000
     17903       144  QMPE      H14S           21.7308104000       21.5042308251       -1.5576875770  MEMB      144             0.0000000000
     17904       144  QMPE      C215           20.7956712606       19.6735319043       -0.9028822307  MEMB      144             0.0000000000
     17905       144  QMPE      H15R           19.7843708567       19.2166547965       -0.8494420421  MEMB      144             0.0000000000
     17906       144  QMPE      H15S           20.9108483217       19.9994290270        0.1529812926  MEMB      144             0.0000000000
     17907       144  QMPE      C216           21.8621071467       18.5354658712       -1.2300966857  MEMB      144             0.0000000000
     17908       144  QMPE      H16R           21.4784610840       17.6927201323       -1.8440310426  MEMB      144             0.0000000000
     17909       144  QMPE      H16S           22.1898525221       18.1474085009       -0.2420093258  MEMB      144             0.0000000000
     17910       144  QMPE      H16T           22.7550056031       18.9817137955       -1.7178631368  MEMB      144             0.0000000000
     17911       144  QMPE      C33            24.4802711075       19.3779016968       -9.5375784168  MEMB      144             0.0000000000
     17912       144  QMPE      H3X            23.6249313813       19.6543630192       -8.8846744559  MEMB      144             0.0000000000
     17913       144  QMPE      H3Y            25.0695062279       20.3124422197       -9.6548686933  MEMB      144             0.0000000000
     17914       144  QMPE      C34            25.3639521610       18.5229970323       -8.5836945668  MEMB      144             0.0000000000
     17915       144  QMPE      H4X            26.3681829326       18.4846747821       -9.0573743084  MEMB      144             0.0000000000
     17916       144  QMPE      H4Y            24.8689712908       17.5292717248       -8.6264143441  MEMB      144             0.0000000000
     17917       144  QMPE      C35            25.6057808008       19.0760249948       -7.2086362779  MEMB      144             0.0000000000
     17918       144  QMPE      H5X            25.7265854115       20.1786072413       -7.2721929737  MEMB      144             0.0000000000
     17919       144  QMPE      H5Y            26.5611578594       18.6036603055       -6.8948733665  MEMB      144             0.0000000000
     17920       144  QMPE      C36            24.4026367912       18.6451033567       -6.2490574427  MEMB      144             0.0000000000
     17921       144  QMPE      H6X            24.3446636705       17.5384450525       -6.3282251329  MEMB      144             0.0000000000
     17922       144  QMPE      H6Y            23.4624072308       19.1707949751       -6.5209724258  MEMB      144             0.0000000000
     17923       144  QMPE      C37            24.5330226472       19.1797338722       -4.7544199108  MEMB      144             0.0000000000
     17924       144  QMPE      H7X            24.1494683330       20.2200494767       -4.6840572536  MEMB      144             0.0000000000
     17925       144  QMPE      H7Y            23.7960685019       18.5269001132       -4.2396110945  MEMB      144             0.0000000000
     17926       144  QMPE      C38            25.7909863839       18.9216062035       -3.9108065601  MEMB      144             0.0000000000
     17927       144  QMPE      H8X            26.0686095405       17.8458534187       -3.9092468353  MEMB      144             0.0000000000
     17928       144  QMPE      H8Y            26.6460445517       19.4980453485       -4.3242244548  MEMB      144             0.0000000000
     17929       144  QMPE      C39            25.6656460288       19.3536519972       -2.4594637486  MEMB      144             0.0000000000
     17930       144  QMPE      H9X            25.0729685473       18.5569701623       -1.9611148276  MEMB      144             0.0000000000
     17931       144  QMPE      H9Y            25.1430472585       20.3276901232       -2.3478382778  MEMB      144             0.0000000000
     17932       144  QMPE      C310           27.0732694898       19.5567033348       -1.7540209271  MEMB      144             0.0000000000
     17933       144  QMPE      H10X           27.6443743354       20.3650435735       -2.2587446995  MEMB      144             0.0000000000
     17934       144  QMPE      H10Y           27.6436170200       18.6033909888       -1.7392057871  MEMB      144             0.0000000000
     17935       144  QMPE      C311           26.9268176907       20.0351176614       -0.3516246610  MEMB      144             0.0000000000
     17936       144  QMPE      H11X           27.9318255703       20.1860448136        0.0972647920  MEMB      144             0.0000000000
     17937       144  QMPE      H11Y           26.4034708133       19.2912702648        0.2864347141  MEMB      144             0.0000000000
     17938       144  QMPE      C312           26.0623342679       21.3070549747       -0.0962071727  MEMB      144             0.0000000000
     17939       144  QMPE      H12X           25.9309284184       21.4297913765        1.0001444037  MEMB      144             0.0000000000
     17940       144  QMPE      H12Y           25.0501263440       21.2514068201       -0.5508054444  MEMB      144             0.0000000000
     17941       144  QMPE      C313           26.7811295729       22.4866259453       -0.7803095147  MEMB      144             0.0000000000
     17942       144  QMPE      H13X           27.7907750011       22.6197215179       -0.3362117343  MEMB      144             0.0000000000
     17943       144  QMPE      H13Y           26.8823022335       22.2400475863       -1.8588657184  MEMB      144             0.0000000000
     17944       144  QMPE      C314           25.8986105487       23.7656710422       -0.5814984001  MEMB      144             0.0000000000
     17945       144  QMPE      H14X           26.3779151774       24.5888172689       -1.1533542320  MEMB      144             0.0000000000
     17946       144  QMPE      H14Y           25.8421040630       24.0355441877        0.4947423650  MEMB      144             0.0000000000
     17947       144  QMPE      C315           24.3858224861       23.6398792043       -1.1806668082  MEMB      144             0.0000000000
     17948       144  QMPE      H15X           23.9892781289       24.6192510889       -1.5240390254  MEMB      144             0.0000000000
     17949       144  QMPE      H15Y           24.3735203382       22.9719528125       -2.0683850826  MEMB      144             0.0000000000
     17950       144  QMPE      H15Z           23.8326781833       23.3552805837       -0.2601468497  MEMB      144             0.0000000000
     17951       145  QMPE      N               4.3502469791      -31.4336218075      -22.0638348467  MEMB      145             0.0000000000
     17952       145  QMPE      HN1             3.5991673523      -30.7903717545      -21.7417965605  MEMB      145             0.0000000000
     17953       145  QMPE      HN2             4.5838104682      -31.2111483271      -23.0525481081  MEMB      145             0.0000000000
     17954       145  QMPE      HN3             4.0120339135      -32.4131040287      -22.1523024670  MEMB      145             0.0000000000
     17955       145  QMPE      C12             5.5769662216      -31.3445944172      -21.1677019469  MEMB      145             0.0000000000
     17956       145  QMPE      H12A            6.1095850048      -30.4036884274      -21.4233073116  MEMB      145             0.0000000000
     17957       145  QMPE      H12B            6.2138484214      -32.2151692786      -21.4337873278  MEMB      145             0.0000000000
     17958       145  QMPE      C11             5.3887928928      -31.2330544157      -19.6277348476  MEMB      145             0.0000000000
     17959       145  QMPE      H11A            6.3800495245      -31.4234820622      -19.1635489299  MEMB      145             0.0000000000
     17960       145  QMPE      H11B            4.6846649844      -32.0422969575      -19.3385093698  MEMB      145             0.0000000000
     17961       145  QMPE      P               5.0628317472      -29.4861563907      -17.7692923551  MEMB      145             0.0000000000
     17962       145  QMPE      O13             4.2254247759      -28.2731350267      -17.6113762035  MEMB      145             0.0000000000
     17963       145  QMPE      O14             6.4855417984      -29.3650005310      -17.5219097477  MEMB      145             0.0000000000
     17964       145  QMPE      O11             4.6621821076      -30.7437142508      -16.9699535113  MEMB      145             0.0000000000
     17965       145  QMPE      O12             4.8417385165      -29.9742143566      -19.2681965394  MEMB      145             0.0000000000
     17966       145  QMPE      C1              3.3530725094      -31.1716071232      -16.6944507982  MEMB      145             0.0000000000
     17967       145  QMPE      HA              3.1553216801      -32.1108622887      -17.2539285650  MEMB      145             0.0000000000
     17968       145  QMPE      HB              2.6098058777      -30.4373707182      -17.0723036313  MEMB      145             0.0000000000
     17969       145  QMPE      C2              3.3103727279      -31.3087520103      -15.1169727264  MEMB      145             0.0000000000
     17970       145  QMPE      HS              2.3159165278      -31.7093403143      -14.8255850574  MEMB      145             0.0000000000
     17971       145  QMPE      O21             3.3155229014      -29.9654913966      -14.5639374875  MEMB      145             0.0000000000
     17972       145  QMPE      C21             2.3201150124      -29.1021741726      -14.7361018033  MEMB      145             0.0000000000
     17973       145  QMPE      O22             1.2067189342      -29.3459962030      -15.1825236345  MEMB      145             0.0000000000
     17974       145  QMPE      C22             2.7066223648      -27.7166899630      -14.3933785175  MEMB      145             0.0000000000
     17975       145  QMPE      H2R             1.7762985595      -27.2054351156      -14.0656024718  MEMB      145             0.0000000000
     17976       145  QMPE      H2S             2.9942350924      -27.2270795004      -15.3483033641  MEMB      145             0.0000000000
     17977       145  QMPE      C3              4.4546946292      -32.1212989278      -14.5331382193  MEMB      145             0.0000000000
     17978       145  QMPE      HX              5.4216154722      -31.6145975542      -14.7396296908  MEMB      145             0.0000000000
     17979       145  QMPE      HY              4.3838077403      -33.0718939155      -15.1038088225  MEMB      145             0.0000000000
     17980       145  QMPE      O31             4.3531960219      -32.1381218833      -13.1393947686  MEMB      145             0.0000000000
     17981       145  QMPE      C31             3.3838420023      -32.9406516273      -12.5544661755  MEMB      145             0.0000000000
     17982       145  QMPE      O32             2.5418941267      -33.5046075079      -13.2431681658  MEMB      145             0.0000000000
     17983       145  QMPE      C32             3.4829721311      -32.8629601857      -11.0498871526  MEMB      145             0.0000000000
     17984       145  QMPE      H2X             3.2787239112      -33.8798272577      -10.6516604497  MEMB      145             0.0000000000
     17985       145  QMPE      H2Y             4.4586060337      -32.3866601268      -10.8140951467  MEMB      145             0.0000000000
     17986       145  QMPE      C23             3.8980430723      -27.5608866286      -13.4322246328  MEMB      145             0.0000000000
     17987       145  QMPE      H3R             4.1038229953      -26.4736159809      -13.3331367475  MEMB      145             0.0000000000
     17988       145  QMPE      H3S             4.7596041955      -28.1016094395      -13.8790490326  MEMB      145             0.0000000000
     17989       145  QMPE      C24             3.8934880313      -28.1292080368      -11.9829642196  MEMB      145             0.0000000000
     17990       145  QMPE      H4R             4.8885104383      -27.8989325761      -11.5456719108  MEMB      145             0.0000000000
     17991       145  QMPE      H4S             3.8628827689      -29.2366005794      -11.8989050723  MEMB      145             0.0000000000
     17992       145  QMPE      C25             2.8396675106      -27.4276951082      -11.0625087607  MEMB      145             0.0000000000
     17993       145  QMPE      H5R             2.0195622885      -28.1524468171      -10.8715019462  MEMB      145             0.0000000000
     17994       145  QMPE      H5S             2.4587475966      -26.5217716964      -11.5807017136  MEMB      145             0.0000000000
     17995       145  QMPE      C26             3.4365044645      -27.0325851279       -9.7008320681  MEMB      145             0.0000000000
     17996       145  QMPE      H6R             4.0972217773      -26.1706733371       -9.9351016356  MEMB      145             0.0000000000
     17997       145  QMPE      H6S             3.9609417503      -27.9661274048       -9.4045463760  MEMB      145             0.0000000000
     17998       145  QMPE      C27             2.3650087111      -26.5895361221       -8.6792146284  MEMB      145             0.0000000000
     17999       145  QMPE      H7R             1.4290733079      -27.1879061228       -8.6619169591  MEMB      145             0.0000000000
     18000       145  QMPE      H7S             2.0068333363      -25.5900400919       -9.0063828308  MEMB      145             0.0000000000
     18001       145  QMPE      C28             2.7077292773      -26.3273965911       -7.1667421207  MEMB      145             0.0000000000
     18002       145  QMPE      H8R             3.1275687527      -27.2588270704       -6.7302874106  MEMB      145             0.0000000000
     18003       145  QMPE      H8S             1.7811483444      -25.9878853193       -6.6563491541  MEMB      145             0.0000000000
     18004       145  QMPE      C29             3.6761385409      -25.1844414894       -6.9020313917  MEMB      145             0.0000000000
     18005       145  QMPE      H9R             3.6837554253      -24.2234919787       -7.4595606938  MEMB      145             0.0000000000
     18006       145  QMPE      C217            5.0889933003      -25.6508746578       -6.6417247043  MEMB      145             0.0000000000
     18007       145  QMPE      H17R            5.1716721005      -26.7306927741       -6.6485319739  MEMB      145             0.0000000000
     18008       145  QMPE      H17S            5.7465811469      -25.0765889473       -7.2825541645  MEMB      145             0.0000000000
     18009       145  QMPE      C210            4.2371804873      -24.9848822546       -5.5242753223  MEMB      145             0.0000000000
     18010       145  QMPE      H10R            4.3798036544      -23.8860658566       -5.4431457280  MEMB      145             0.0000000000
     18011       145  QMPE      C211            3.8046565229      -25.7812838674       -4.2950359098  MEMB      145             0.0000000000
     18012       145  QMPE      H11R            3.8020554258      -26.8385423363       -4.6363845300  MEMB      145             0.0000000000
     18013       145  QMPE      H11S            4.6288213794      -25.6870739631       -3.5559839836  MEMB      145             0.0000000000
     18014       145  QMPE      C212            2.5807684786      -25.1640065010       -3.6152735182  MEMB      145             0.0000000000
     18015       145  QMPE      H12R            1.8023844419      -25.2578289778       -4.4024437787  MEMB      145             0.0000000000
     18016       145  QMPE      H12S            2.7737542803      -24.0907564473       -3.4026439224  MEMB      145             0.0000000000
     18017       145  QMPE      C213            2.1301996320      -25.9240885835       -2.3305364556  MEMB      145             0.0000000000
     18018       145  QMPE      H13R            1.1066775728      -25.6099216210       -2.0338500826  MEMB      145             0.0000000000
     18019       145  QMPE      H13S            2.8020866046      -25.6571946167       -1.4869393453  MEMB      145             0.0000000000
     18020       145  QMPE      C214            2.1115186270      -27.4154640706       -2.2917049426  MEMB      145             0.0000000000
     18021       145  QMPE      H14R            1.6569149321      -27.7100783917       -1.3217264950  MEMB      145             0.0000000000
     18022       145  QMPE      H14S            3.1430087630      -27.8271980522       -2.3204165055  MEMB      145             0.0000000000
     18023       145  QMPE      C215            1.2413098664      -28.0137624600       -3.3960278519  MEMB      145             0.0000000000
     18024       145  QMPE      H15R            1.8797300772      -27.9041384485       -4.2986473100  MEMB      145             0.0000000000
     18025       145  QMPE      H15S            0.2582643822      -27.4961768928       -3.3891135242  MEMB      145             0.0000000000
     18026       145  QMPE      C216            0.7107659284      -29.4335199050       -3.3077147983  MEMB      145             0.0000000000
     18027       145  QMPE      H16R            1.5455780193      -30.1557188479       -3.4335663173  MEMB      145             0.0000000000
     18028       145  QMPE      H16S            0.0519991423      -29.5998146732       -4.1867442370  MEMB      145             0.0000000000
     18029       145  QMPE      H16T            0.1060687816      -29.5591912314       -2.3842045708  MEMB      145             0.0000000000
     18030       145  QMPE      C33             2.3906482411      -31.9461042654      -10.5833163746  MEMB      145             0.0000000000
     18031       145  QMPE      H3X             1.4074161238      -32.3565307130      -10.8981589454  MEMB      145             0.0000000000
     18032       145  QMPE      H3Y             2.6851407003      -30.9487895617      -10.9744156110  MEMB      145             0.0000000000
     18033       145  QMPE      C34             2.3872633402      -31.6447791497       -9.1337859989  MEMB      145             0.0000000000
     18034       145  QMPE      H4X             2.0074133224      -32.5310740653       -8.5819558750  MEMB      145             0.0000000000
     18035       145  QMPE      H4Y             1.6499117376      -30.8365638375       -8.9403397510  MEMB      145             0.0000000000
     18036       145  QMPE      C35             3.7530947426      -31.1836600251       -8.5376951705  MEMB      145             0.0000000000
     18037       145  QMPE      H5X             4.1433420765      -30.2429519291       -8.9816503425  MEMB      145             0.0000000000
     18038       145  QMPE      H5Y             4.5286874230      -31.9584517503       -8.7179033528  MEMB      145             0.0000000000
     18039       145  QMPE      C36             3.5936367483      -30.9710706119       -7.0324852508  MEMB      145             0.0000000000
     18040       145  QMPE      H6X             3.0207254320      -31.8787048169       -6.7456170667  MEMB      145             0.0000000000
     18041       145  QMPE      H6Y             3.0328525792      -30.0140779557       -6.9691835207  MEMB      145             0.0000000000
     18042       145  QMPE      C37             4.7643620147      -30.8262234055       -6.1107487382  MEMB      145             0.0000000000
     18043       145  QMPE      H7X             4.2667338772      -30.8181830532       -5.1174594976  MEMB      145             0.0000000000
     18044       145  QMPE      H7Y             5.4895224906      -31.6586277658       -5.9859827530  MEMB      145             0.0000000000
     18045       145  QMPE      C38             5.5537425073      -29.5201977725       -6.3641612329  MEMB      145             0.0000000000
     18046       145  QMPE      H8X             5.8339233548      -29.5387383854       -7.4390915372  MEMB      145             0.0000000000
     18047       145  QMPE      H8Y             4.8180478454      -28.7018033507       -6.2115015423  MEMB      145             0.0000000000
     18048       145  QMPE      C39             6.7623343452      -29.2792554255       -5.3991334539  MEMB      145             0.0000000000
     18049       145  QMPE      H9X             7.3631814538      -28.4602325511       -5.8491395557  MEMB      145             0.0000000000
     18050       145  QMPE      H9Y             7.4428444579      -30.1555467455       -5.3413376347  MEMB      145             0.0000000000
     18051       145  QMPE      C310            6.4319177906      -28.7624295043       -3.9645457423  MEMB      145             0.0000000000
     18052       145  QMPE      H10X            5.4590980351      -29.1078404637       -3.5538945424  MEMB      145             0.0000000000
     18053       145  QMPE      H10Y            6.4068256909      -27.6540476694       -4.0365249743  MEMB      145             0.0000000000
     18054       145  QMPE      C311            7.4620666396      -29.1451178555       -2.8424806397  MEMB      145             0.0000000000
     18055       145  QMPE      H11X            8.3598537814      -28.5329236809       -3.0738205054  MEMB      145             0.0000000000
     18056       145  QMPE      H11Y            7.7349530765      -30.2214133615       -2.8804584685  MEMB      145             0.0000000000
     18057       145  QMPE      C312            6.8884816810      -28.8846730163       -1.4281496329  MEMB      145             0.0000000000
     18058       145  QMPE      H12X            7.5963986727      -29.1972340251       -0.6309786890  MEMB      145             0.0000000000
     18059       145  QMPE      H12Y            5.9132611998      -29.3988537182       -1.2907289521  MEMB      145             0.0000000000
     18060       145  QMPE      C313            6.5760456059      -27.4302280747       -1.2440295527  MEMB      145             0.0000000000
     18061       145  QMPE      H13X            7.4362991304      -26.7299137225       -1.3060346815  MEMB      145             0.0000000000
     18062       145  QMPE      H13Y            5.8754191463      -27.1537151909       -2.0607211832  MEMB      145             0.0000000000
     18063       145  QMPE      C314            5.7296396207      -27.1588745763        0.0072730528  MEMB      145             0.0000000000
     18064       145  QMPE      H14X            5.1316358428      -28.0809155160        0.1702236994  MEMB      145             0.0000000000
     18065       145  QMPE      H14Y            5.1028843151      -26.2677210540       -0.2103141440  MEMB      145             0.0000000000
     18066       145  QMPE      C315            6.4867604242      -26.7395131218        1.3309721396  MEMB      145             0.0000000000
     18067       145  QMPE      H15X            7.5614140181      -26.7576711559        1.0497055718  MEMB      145             0.0000000000
     18068       145  QMPE      H15Y            6.3609883557      -25.6642804553        1.5807248309  MEMB      145             0.0000000000
     18069       145  QMPE      H15Z            6.1098881398      -27.4002714666        2.1407163472  MEMB      145             0.0000000000
     18070       146  PMPE      N               9.8839723917       30.2350312570      -18.0423036264  MEMB      146             0.0000000000
     18071       146  PMPE      HN1             9.9771930835       30.2412202634      -17.0065084605  MEMB      146             0.0000000000
     18072       146  PMPE      HN2             9.0577705082       30.8300615768      -18.2542691101  MEMB      146             0.0000000000
     18073       146  PMPE      HN3             9.7031648333       29.2841271107      -18.4226847793  MEMB      146             0.0000000000
     18074       146  PMPE      C12            11.2069868513       30.7339734020      -18.5656601211  MEMB      146             0.0000000000
     18075       146  PMPE      H12A           11.5267316425       31.6196640385      -17.9760532264  MEMB      146             0.0000000000
     18076       146  PMPE      H12B           11.0684278284       30.9723710311      -19.6418985061  MEMB      146             0.0000000000
     18077       146  PMPE      C11            12.3308847143       29.6716407660      -18.4835574511  MEMB      146             0.0000000000
     18078       146  PMPE      H11A           12.2578822556       29.3272820537      -17.4297981258  MEMB      146             0.0000000000
     18079       146  PMPE      H11B           13.3302732046       30.1169782445      -18.6764774721  MEMB      146             0.0000000000
     18080       146  PMPE      P              13.1422028554       27.4185028121      -19.4389486670  MEMB      146             0.0000000000
     18081       146  PMPE      O13            14.5179693992       27.9096020542      -19.3638839240  MEMB      146             0.0000000000
     18082       146  PMPE      O14            12.8539016268       26.4806241151      -20.5477878123  MEMB      146             0.0000000000
     18083       146  PMPE      O11            12.7494271949       26.6988969249      -18.0853779994  MEMB      146             0.0000000000
     18084       146  PMPE      O12            12.1381125624       28.6519198752      -19.4724804022  MEMB      146             0.0000000000
     18085       146  PMPE      C1             11.5236924048       26.2984361693      -17.6632511125  MEMB      146             0.0000000000
     18086       146  PMPE      HA             11.2474196838       25.3697630046      -18.2069058354  MEMB      146             0.0000000000
     18087       146  PMPE      HB             10.7222107694       27.0617902075      -17.7593690560  MEMB      146             0.0000000000
     18088       146  PMPE      C2             11.5037273349       25.9762445778      -16.1759353390  MEMB      146             0.0000000000
     18089       146  PMPE      HS             10.4387508947       25.8801144834      -15.8744301945  MEMB      146             0.0000000000
     18090       146  PMPE      O21            12.0358443159       27.1233227451      -15.5041796447  MEMB      146             0.0000000000
     18091       146  PMPE      C21            11.6217261535       27.4958792902      -14.3229188865  MEMB      146             0.0000000000
     18092       146  PMPE      O22            10.7525381207       27.0004759098      -13.6240247267  MEMB      146             0.0000000000
     18093       146  PMPE      C22            12.5704176270       28.6366767720      -13.8838183504  MEMB      146             0.0000000000
     18094       146  PMPE      H2R            12.4437761859       28.8278343387      -12.7967388764  MEMB      146             0.0000000000
     18095       146  PMPE      H2S            12.2195877588       29.5353593280      -14.4348257328  MEMB      146             0.0000000000
     18096       146  PMPE      C3             12.3435420127       24.6983621370      -15.7593330500  MEMB      146             0.0000000000
     18097       146  PMPE      HX             13.2787269433       24.8014818254      -16.3501938041  MEMB      146             0.0000000000
     18098       146  PMPE      HY             11.6858161110       23.8211943385      -15.9390392068  MEMB      146             0.0000000000
     18099       146  PMPE      O31            12.7015703303       24.6843409879      -14.4014019368  MEMB      146             0.0000000000
     18100       146  PMPE      C31            11.8853074923       24.0664410876      -13.5059287680  MEMB      146             0.0000000000
     18101       146  PMPE      O32            10.9399156611       23.3685698998      -13.7132226155  MEMB      146             0.0000000000
     18102       146  PMPE      C32            12.3250070791       24.3938110209      -12.0568909462  MEMB      146             0.0000000000
     18103       146  PMPE      H2X            12.7707266310       25.4107072683      -12.0171800829  MEMB      146             0.0000000000
     18104       146  PMPE      H2Y            13.0245407140       23.5928163542      -11.7353611326  MEMB      146             0.0000000000
     18105       146  PMPE      C23            14.0008111763       28.2643623070      -14.3288558341  MEMB      146             0.0000000000
     18106       146  PMPE      H3R            14.0018681502       27.8729271719      -15.3686145663  MEMB      146             0.0000000000
     18107       146  PMPE      H3S            14.2705997718       27.3526008760      -13.7542021434  MEMB      146             0.0000000000
     18108       146  PMPE      C24            15.0610615167       29.3526927449      -14.3834615039  MEMB      146             0.0000000000
     18109       146  PMPE      H4R            14.8329393372       30.0935021536      -15.1793778445  MEMB      146             0.0000000000
     18110       146  PMPE      H4S            16.0645497585       28.9406113323      -14.6232981099  MEMB      146             0.0000000000
     18111       146  PMPE      C25            15.0594677214       30.1557053433      -13.0697547440  MEMB      146             0.0000000000
     18112       146  PMPE      H5R            14.1305638437       30.7581662371      -12.9775626144  MEMB      146             0.0000000000
     18113       146  PMPE      H5S            15.8633785684       30.9172852760      -13.1594459877  MEMB      146             0.0000000000
     18114       146  PMPE      C26            15.2179245571       29.2990655576      -11.7513669040  MEMB      146             0.0000000000
     18115       146  PMPE      H6R            16.0276250995       28.5714311128      -11.9732993261  MEMB      146             0.0000000000
     18116       146  PMPE      H6S            14.2756126905       28.7976017443      -11.4433029698  MEMB      146             0.0000000000
     18117       146  PMPE      C27            15.5722998299       30.2348012871      -10.5581863202  MEMB      146             0.0000000000
     18118       146  PMPE      H7R            14.7209570687       30.9200141966      -10.3581374270  MEMB      146             0.0000000000
     18119       146  PMPE      H7S            16.4691947137       30.8765590854      -10.6925287603  MEMB      146             0.0000000000
     18120       146  PMPE      C28            15.6031677126       29.3699214679       -9.2445419412  MEMB      146             0.0000000000
     18121       146  PMPE      H8R            14.6906154935       28.7364892058       -9.2262851636  MEMB      146             0.0000000000
     18122       146  PMPE      H8S            15.7485007863       30.0620237917       -8.3876908212  MEMB      146             0.0000000000
     18123       146  PMPE      C29            16.8949105382       28.4456305565       -9.1903991662  MEMB      146             0.0000000000
     18124       146  PMPE      H9R            17.8235027169       28.8688710435       -9.6296090907  MEMB      146             0.0000000000
     18125       146  PMPE      C217           16.7771324492       26.9391374482       -9.4181504141  MEMB      146             0.0000000000
     18126       146  PMPE      H17R           17.5962839162       26.6760751205      -10.0759331912  MEMB      146             0.0000000000
     18127       146  PMPE      H17S           15.7599104762       26.5731980468       -9.4832427641  MEMB      146             0.0000000000
     18128       146  PMPE      C210           17.0887647853       27.4506266068       -8.0070189109  MEMB      146             0.0000000000
     18129       146  PMPE      H10R           18.1353474861       27.3766092710       -7.6416335546  MEMB      146             0.0000000000
     18130       146  PMPE      C211           15.9347104228       27.3715032344       -6.9685633512  MEMB      146             0.0000000000
     18131       146  PMPE      H11R           16.2273686336       26.4939364804       -6.3533005218  MEMB      146             0.0000000000
     18132       146  PMPE      H11S           14.9826729972       27.1899420644       -7.5116846511  MEMB      146             0.0000000000
     18133       146  PMPE      C212           15.8334944727       28.5433055587       -6.0167626216  MEMB      146             0.0000000000
     18134       146  PMPE      H12R           16.2302531664       29.4406824269       -6.5379329899  MEMB      146             0.0000000000
     18135       146  PMPE      H12S           16.4419852517       28.2873379705       -5.1231521641  MEMB      146             0.0000000000
     18136       146  PMPE      C213           14.3829723159       28.7528795834       -5.4186946552  MEMB      146             0.0000000000
     18137       146  PMPE      H13R           14.1272444986       27.7929700516       -4.9212027409  MEMB      146             0.0000000000
     18138       146  PMPE      H13S           13.7143694785       28.9660190550       -6.2800093527  MEMB      146             0.0000000000
     18139       146  PMPE      C214           14.3040113925       29.8738390669       -4.4105457684  MEMB      146             0.0000000000
     18140       146  PMPE      H14R           13.2982689695       29.8872490435       -3.9387155619  MEMB      146             0.0000000000
     18141       146  PMPE      H14S           14.5558916461       30.8686356320       -4.8362883170  MEMB      146             0.0000000000
     18142       146  PMPE      C215           15.3535682273       29.6237060397       -3.2819320357  MEMB      146             0.0000000000
     18143       146  PMPE      H15R           16.3411835389       29.9744050965       -3.6506425822  MEMB      146             0.0000000000
     18144       146  PMPE      H15S           15.4304599916       28.5435859396       -3.0334381072  MEMB      146             0.0000000000
     18145       146  PMPE      C216           15.2258754602       30.3256894917       -1.9494560535  MEMB      146             0.0000000000
     18146       146  PMPE      H16R           14.2174112136       30.1424230284       -1.5208139887  MEMB      146             0.0000000000
     18147       146  PMPE      H16S           15.9932542603       29.9340690009       -1.2479685197  MEMB      146             0.0000000000
     18148       146  PMPE      H16T           15.1892838094       31.4351099704       -1.9028918081  MEMB      146             0.0000000000
     18149       146  PMPE      C33            11.1094138512       24.4231094335      -10.9932711052  MEMB      146             0.0000000000
     18150       146  PMPE      H3X            10.8649919268       23.3689469478      -10.7416356014  MEMB      146             0.0000000000
     18151       146  PMPE      H3Y            10.2102473011       24.8502335409      -11.4866115740  MEMB      146             0.0000000000
     18152       146  PMPE      C34            11.4503081253       25.2688549341       -9.7270460544  MEMB      146             0.0000000000
     18153       146  PMPE      H4X            10.5653197571       25.1633958394       -9.0637251960  MEMB      146             0.0000000000
     18154       146  PMPE      H4Y            11.5596672380       26.3682508078       -9.8440525360  MEMB      146             0.0000000000
     18155       146  PMPE      C35            12.6240660854       24.7825668888       -8.8100560328  MEMB      146             0.0000000000
     18156       146  PMPE      H5X            12.5708746421       25.4844289115       -7.9504739794  MEMB      146             0.0000000000
     18157       146  PMPE      H5Y            13.6087499305       24.9463002842       -9.2978167196  MEMB      146             0.0000000000
     18158       146  PMPE      C36            12.6193316481       23.3134664169       -8.4509359434  MEMB      146             0.0000000000
     18159       146  PMPE      H6X            13.5019548128       23.0748795922       -7.8197671315  MEMB      146             0.0000000000
     18160       146  PMPE      H6Y            12.7265121744       22.7666615783       -9.4121005559  MEMB      146             0.0000000000
     18161       146  PMPE      C37            11.3874949556       22.7848438403       -7.6576692315  MEMB      146             0.0000000000
     18162       146  PMPE      H7X            11.5139351647       21.6854992657       -7.5587969154  MEMB      146             0.0000000000
     18163       146  PMPE      H7Y            10.4419678522       22.8352329279       -8.2388403732  MEMB      146             0.0000000000
     18164       146  PMPE      C38            11.0209289018       23.3676250369       -6.3057536728  MEMB      146             0.0000000000
     18165       146  PMPE      H8X            10.2371292109       22.6668402572       -5.9467556593  MEMB      146             0.0000000000
     18166       146  PMPE      H8Y            10.5249778351       24.3475174254       -6.4735780533  MEMB      146             0.0000000000
     18167       146  PMPE      C39            12.1196843239       23.6809502924       -5.3231774325  MEMB      146             0.0000000000
     18168       146  PMPE      H9X            12.9266412840       24.1703203650       -5.9094012286  MEMB      146             0.0000000000
     18169       146  PMPE      H9Y            12.4242632197       22.7639835494       -4.7747945402  MEMB      146             0.0000000000
     18170       146  PMPE      C310           11.6682667880       24.6772236348       -4.2602787590  MEMB      146             0.0000000000
     18171       146  PMPE      H10X           10.7011047545       24.2965514651       -3.8678414893  MEMB      146             0.0000000000
     18172       146  PMPE      H10Y           11.4933163066       25.6740428078       -4.7186063970  MEMB      146             0.0000000000
     18173       146  PMPE      C311           12.6855230565       24.8164148441       -3.0746787017  MEMB      146             0.0000000000
     18174       146  PMPE      H11X           13.6919302809       25.0051949697       -3.5057557731  MEMB      146             0.0000000000
     18175       146  PMPE      H11Y           12.8739558501       23.8705223649       -2.5232232990  MEMB      146             0.0000000000
     18176       146  PMPE      C312           12.3359948392       25.9755339901       -2.1227517268  MEMB      146             0.0000000000
     18177       146  PMPE      H12X           11.4078527768       25.7323094022       -1.5626482369  MEMB      146             0.0000000000
     18178       146  PMPE      H12Y           12.0459598976       26.8635420146       -2.7241172094  MEMB      146             0.0000000000
     18179       146  PMPE      C313           13.3046428012       26.3844927608       -0.9897405718  MEMB      146             0.0000000000
     18180       146  PMPE      H13X           14.0973137399       26.9278964003       -1.5471518588  MEMB      146             0.0000000000
     18181       146  PMPE      H13Y           13.8338984503       25.5207261430       -0.5335432732  MEMB      146             0.0000000000
     18182       146  PMPE      C314           12.6802809101       27.1952966422        0.1080352118  MEMB      146             0.0000000000
     18183       146  PMPE      H14X           12.1611360913       26.5308030653        0.8314002630  MEMB      146             0.0000000000
     18184       146  PMPE      H14Y           11.9317158185       27.9477907782       -0.2201785158  MEMB      146             0.0000000000
     18185       146  PMPE      C315           13.7165479147       27.8905120931        1.0088298070  MEMB      146             0.0000000000
     18186       146  PMPE      H15X           14.6221272101       28.1797403551        0.4338563097  MEMB      146             0.0000000000
     18187       146  PMPE      H15Y           13.9801830317       27.1220349901        1.7666297391  MEMB      146             0.0000000000
     18188       146  PMPE      C316           13.1535050479       29.1123231572        1.7780302680  MEMB      146             0.0000000000
     18189       146  PMPE      H16X           13.5273516926       30.0339259681        1.2828451691  MEMB      146             0.0000000000
     18190       146  PMPE      H16Y           13.4096312340       28.9981846412        2.8530611389  MEMB      146             0.0000000000
     18191       146  PMPE      H16Z           12.0494641898       29.2116696391        1.7035666306  MEMB      146             0.0000000000
     18192       147  PMPE      N             -30.2554340907        2.6972449321      -18.3613330638  MEMB      147             0.0000000000
     18193       147  PMPE      HN1           -30.4787883103        3.2895060640      -17.5361425738  MEMB      147             0.0000000000
     18194       147  PMPE      HN2           -29.3488243770        2.1879127623      -18.3458556750  MEMB      147             0.0000000000
     18195       147  PMPE      HN3           -30.3739898744        3.2635568251      -19.2255294471  MEMB      147             0.0000000000
     18196       147  PMPE      C12           -31.2790939468        1.6482838130      -18.3413992738  MEMB      147             0.0000000000
     18197       147  PMPE      H12A          -32.2978898985        2.0779530481      -18.4498433572  MEMB      147             0.0000000000
     18198       147  PMPE      H12B          -31.1316249519        1.1170850036      -17.3768259419  MEMB      147             0.0000000000
     18199       147  PMPE      C11           -30.9632694920        0.5993344576      -19.4988061246  MEMB      147             0.0000000000
     18200       147  PMPE      H11A          -29.8973873888        0.3024080198      -19.3985510345  MEMB      147             0.0000000000
     18201       147  PMPE      H11B          -30.9991955750        1.1055988611      -20.4871008957  MEMB      147             0.0000000000
     18202       147  PMPE      P             -31.2335074566       -1.9712209948      -19.2504053793  MEMB      147             0.0000000000
     18203       147  PMPE      O13           -30.2607088403       -2.1668973967      -20.3426573073  MEMB      147             0.0000000000
     18204       147  PMPE      O14           -32.2894983929       -2.9733016088      -19.0431677073  MEMB      147             0.0000000000
     18205       147  PMPE      O11           -30.4670151666       -1.8012301822      -17.8399122010  MEMB      147             0.0000000000
     18206       147  PMPE      O12           -31.8115542153       -0.5398834371      -19.3223189174  MEMB      147             0.0000000000
     18207       147  PMPE      C1            -29.1315521642       -2.2027838869      -17.6817116784  MEMB      147             0.0000000000
     18208       147  PMPE      HA            -28.3595926755       -1.4349023341      -17.9025227567  MEMB      147             0.0000000000
     18209       147  PMPE      HB            -28.8697234590       -3.0379437755      -18.3660177071  MEMB      147             0.0000000000
     18210       147  PMPE      C2            -28.9645420163       -2.4801006359      -16.1396663546  MEMB      147             0.0000000000
     18211       147  PMPE      HS            -28.0385596853       -3.0666294606      -15.9583884984  MEMB      147             0.0000000000
     18212       147  PMPE      O21           -30.0435444952       -3.2496887886      -15.6992736375  MEMB      147             0.0000000000
     18213       147  PMPE      C21           -30.1219178655       -3.6484697500      -14.3955310105  MEMB      147             0.0000000000
     18214       147  PMPE      O22           -29.1218284589       -3.9329401932      -13.7380166253  MEMB      147             0.0000000000
     18215       147  PMPE      C22           -31.6073831541       -3.8413787842      -13.9962002864  MEMB      147             0.0000000000
     18216       147  PMPE      H2R           -31.7791759973       -4.8865127659      -13.6607859026  MEMB      147             0.0000000000
     18217       147  PMPE      H2S           -32.2267022768       -3.6668577500      -14.9019085759  MEMB      147             0.0000000000
     18218       147  PMPE      C3            -28.7876968861       -1.2929003978      -15.2478517409  MEMB      147             0.0000000000
     18219       147  PMPE      HX            -28.0990261811       -0.6030706318      -15.7809451558  MEMB      147             0.0000000000
     18220       147  PMPE      HY            -28.3991492718       -1.6590230280      -14.2735281818  MEMB      147             0.0000000000
     18221       147  PMPE      O31           -29.9910371107       -0.5228288782      -15.0849320304  MEMB      147             0.0000000000
     18222       147  PMPE      C31           -29.8374488172        0.6746696389      -14.4224589456  MEMB      147             0.0000000000
     18223       147  PMPE      O32           -28.7820344771        1.1632948853      -14.0333126236  MEMB      147             0.0000000000
     18224       147  PMPE      C32           -31.1876277603        1.1927158972      -14.1313758205  MEMB      147             0.0000000000
     18225       147  PMPE      H2X           -31.6610910198        0.4642718744      -13.4389000582  MEMB      147             0.0000000000
     18226       147  PMPE      H2Y           -31.8446582476        1.3301338441      -15.0166715493  MEMB      147             0.0000000000
     18227       147  PMPE      C23           -31.9033060713       -2.7301323980      -12.9411882237  MEMB      147             0.0000000000
     18228       147  PMPE      H3R           -31.5599494972       -1.7303959762      -13.2831745139  MEMB      147             0.0000000000
     18229       147  PMPE      H3S           -31.5891029562       -3.0309343925      -11.9188796305  MEMB      147             0.0000000000
     18230       147  PMPE      C24           -33.3707081090       -2.5692437398      -12.7984468437  MEMB      147             0.0000000000
     18231       147  PMPE      H4R           -33.8706941522       -3.4854971354      -12.4179019550  MEMB      147             0.0000000000
     18232       147  PMPE      H4S           -33.8611719979       -2.3330898891      -13.7669496465  MEMB      147             0.0000000000
     18233       147  PMPE      C25           -33.7831736612       -1.4277352561      -11.7849425738  MEMB      147             0.0000000000
     18234       147  PMPE      H5R           -33.2463771502       -0.5131886631      -12.1162654599  MEMB      147             0.0000000000
     18235       147  PMPE      H5S           -33.3720504464       -1.6878368592      -10.7861205659  MEMB      147             0.0000000000
     18236       147  PMPE      C26           -35.3053046574       -1.0561091562      -11.7262745491  MEMB      147             0.0000000000
     18237       147  PMPE      H6R           -35.9215708552       -1.9665037910      -11.8866451727  MEMB      147             0.0000000000
     18238       147  PMPE      H6S           -35.4599363658       -0.4906317699      -12.6700141412  MEMB      147             0.0000000000
     18239       147  PMPE      C27           -35.9259266644       -0.2526218394      -10.5803285431  MEMB      147             0.0000000000
     18240       147  PMPE      H7R           -36.1770993390       -0.9277424414       -9.7344882038  MEMB      147             0.0000000000
     18241       147  PMPE      H7S           -36.8870746344        0.1468139913      -10.9688720401  MEMB      147             0.0000000000
     18242       147  PMPE      C28           -35.0372093364        0.9476256408      -10.2588651231  MEMB      147             0.0000000000
     18243       147  PMPE      H8R           -34.7961603755        1.4050281721      -11.2422256690  MEMB      147             0.0000000000
     18244       147  PMPE      H8S           -33.9968724582        0.7250836742       -9.9387166546  MEMB      147             0.0000000000
     18245       147  PMPE      C29           -35.7065126512        1.7526468482       -9.1354259481  MEMB      147             0.0000000000
     18246       147  PMPE      H9R           -36.7458986601        2.1132172764       -9.2903022316  MEMB      147             0.0000000000
     18247       147  PMPE      C217          -34.8497808558        2.5557019484       -8.0942921108  MEMB      147             0.0000000000
     18248       147  PMPE      H17R          -35.3074706669        3.4805325667       -7.7655104509  MEMB      147             0.0000000000
     18249       147  PMPE      H17S          -33.7888735364        2.4569624656       -8.2882397708  MEMB      147             0.0000000000
     18250       147  PMPE      C210          -35.5271818245        1.2491593358       -7.7041151527  MEMB      147             0.0000000000
     18251       147  PMPE      H10R          -36.4319601881        1.3128269667       -7.0625212362  MEMB      147             0.0000000000
     18252       147  PMPE      C211          -34.6854710542        0.0115139397       -7.4473291389  MEMB      147             0.0000000000
     18253       147  PMPE      H11R          -33.7992999368       -0.0464446457       -8.1149087453  MEMB      147             0.0000000000
     18254       147  PMPE      H11S          -35.2576303248       -0.9383733230       -7.5156586745  MEMB      147             0.0000000000
     18255       147  PMPE      C212          -34.2339999742        0.0647111409       -6.0394658212  MEMB      147             0.0000000000
     18256       147  PMPE      H12R          -33.7466430184       -0.8903194270       -5.7483970559  MEMB      147             0.0000000000
     18257       147  PMPE      H12S          -35.0214351234        0.2582036329       -5.2799736734  MEMB      147             0.0000000000
     18258       147  PMPE      C213          -33.0494199814        1.0426140368       -5.8189689583  MEMB      147             0.0000000000
     18259       147  PMPE      H13R          -33.3454061890        2.1134607763       -5.8197741736  MEMB      147             0.0000000000
     18260       147  PMPE      H13S          -32.2618006531        0.8234684157       -6.5712669606  MEMB      147             0.0000000000
     18261       147  PMPE      C214          -32.3225411901        0.7378124412       -4.4953652685  MEMB      147             0.0000000000
     18262       147  PMPE      H14R          -31.3696096533        1.3081003536       -4.4635160323  MEMB      147             0.0000000000
     18263       147  PMPE      H14S          -32.1355272048       -0.3572541083       -4.4820790014  MEMB      147             0.0000000000
     18264       147  PMPE      C215          -33.0290007289        1.1095142344       -3.2311666290  MEMB      147             0.0000000000
     18265       147  PMPE      H15R          -33.9265039239        0.4641618895       -3.1201291040  MEMB      147             0.0000000000
     18266       147  PMPE      H15S          -33.2519939422        2.1875589073       -3.0814501540  MEMB      147             0.0000000000
     18267       147  PMPE      C216          -32.2727021861        0.6491692645       -1.9651434315  MEMB      147             0.0000000000
     18268       147  PMPE      H16R          -32.1817567517       -0.4471627878       -1.8098830716  MEMB      147             0.0000000000
     18269       147  PMPE      H16S          -31.2755363107        1.1387333791       -1.9826998982  MEMB      147             0.0000000000
     18270       147  PMPE      H16T          -32.7134647940        0.9415556884       -0.9881280331  MEMB      147             0.0000000000
     18271       147  PMPE      C33           -31.1820592681        2.6362658474      -13.4406744752  MEMB      147             0.0000000000
     18272       147  PMPE      H3X           -31.9834884081        3.1235962592      -14.0361085708  MEMB      147             0.0000000000
     18273       147  PMPE      H3Y           -30.2206137593        3.1791426039      -13.5640794358  MEMB      147             0.0000000000
     18274       147  PMPE      C34           -31.5383143466        2.3876917132      -11.9487557635  MEMB      147             0.0000000000
     18275       147  PMPE      H4X           -32.2990529660        1.5863254209      -11.8329544305  MEMB      147             0.0000000000
     18276       147  PMPE      H4Y           -32.0138937794        3.3328389286      -11.6098729769  MEMB      147             0.0000000000
     18277       147  PMPE      C35           -30.2759571504        2.0148053615      -10.9675211953  MEMB      147             0.0000000000
     18278       147  PMPE      H5X           -30.4904062504        2.3432868570       -9.9280823227  MEMB      147             0.0000000000
     18279       147  PMPE      H5Y           -29.3931932013        2.6367929157      -11.2286344797  MEMB      147             0.0000000000
     18280       147  PMPE      C36           -30.0023713319        0.5752183570      -10.7060821962  MEMB      147             0.0000000000
     18281       147  PMPE      H6X           -29.5199555593        0.3166501673      -11.6729012016  MEMB      147             0.0000000000
     18282       147  PMPE      H6Y           -30.8724106587       -0.1100115787      -10.7944705579  MEMB      147             0.0000000000
     18283       147  PMPE      C37           -29.1881013396        0.2076788195       -9.4917511159  MEMB      147             0.0000000000
     18284       147  PMPE      H7X           -29.7959012094        0.5255181717       -8.6177489562  MEMB      147             0.0000000000
     18285       147  PMPE      H7Y           -28.3136751583        0.8888605659       -9.5671914374  MEMB      147             0.0000000000
     18286       147  PMPE      C38           -28.6697864355       -1.2483741371       -9.5224847494  MEMB      147             0.0000000000
     18287       147  PMPE      H8X           -27.9418608074       -1.4040875174       -8.6977428505  MEMB      147             0.0000000000
     18288       147  PMPE      H8Y           -28.2778245685       -1.5557101387      -10.5155766876  MEMB      147             0.0000000000
     18289       147  PMPE      C39           -29.7640172167       -2.2759288868       -9.3170883780  MEMB      147             0.0000000000
     18290       147  PMPE      H9X           -29.3211879630       -3.2834470297       -9.4691764197  MEMB      147             0.0000000000
     18291       147  PMPE      H9Y           -30.5028433640       -2.2009405588      -10.1434260607  MEMB      147             0.0000000000
     18292       147  PMPE      C310          -30.4845837034       -2.3404982339       -7.8585010197  MEMB      147             0.0000000000
     18293       147  PMPE      H10X          -30.8299418048       -1.3094742006       -7.6303812250  MEMB      147             0.0000000000
     18294       147  PMPE      H10Y          -29.6402024760       -2.4799128256       -7.1500486814  MEMB      147             0.0000000000
     18295       147  PMPE      C311          -31.4607798848       -3.4938416900       -7.8660167491  MEMB      147             0.0000000000
     18296       147  PMPE      H11X          -30.9092279809       -4.4216646777       -8.1291823630  MEMB      147             0.0000000000
     18297       147  PMPE      H11Y          -32.2373634604       -3.1970939213       -8.6030236999  MEMB      147             0.0000000000
     18298       147  PMPE      C312          -32.1593009440       -3.6391642040       -6.4824583496  MEMB      147             0.0000000000
     18299       147  PMPE      H12X          -32.9681722035       -4.3978214349       -6.5494460292  MEMB      147             0.0000000000
     18300       147  PMPE      H12Y          -32.4892040367       -2.5987813846       -6.2748804225  MEMB      147             0.0000000000
     18301       147  PMPE      C313          -31.2284418526       -4.0272621929       -5.3028982755  MEMB      147             0.0000000000
     18302       147  PMPE      H13X          -30.3587276171       -3.3359719153       -5.3088999014  MEMB      147             0.0000000000
     18303       147  PMPE      H13Y          -30.8428650020       -5.0680173792       -5.2530942246  MEMB      147             0.0000000000
     18304       147  PMPE      C314          -31.8114055822       -3.8575626053       -3.9291900402  MEMB      147             0.0000000000
     18305       147  PMPE      H14X          -32.5675707826       -4.6530633332       -3.7568116966  MEMB      147             0.0000000000
     18306       147  PMPE      H14Y          -32.4167009532       -2.9299411792       -3.8428363101  MEMB      147             0.0000000000
     18307       147  PMPE      C315          -30.8602937363       -4.0482165491       -2.7654247584  MEMB      147             0.0000000000
     18308       147  PMPE      H15X          -30.0941275673       -3.2464934092       -2.6979679660  MEMB      147             0.0000000000
     18309       147  PMPE      H15Y          -30.3482156359       -5.0319858580       -2.8309618200  MEMB      147             0.0000000000
     18310       147  PMPE      C316          -31.6542886572       -4.1004948674       -1.4355115034  MEMB      147             0.0000000000
     18311       147  PMPE      H16X          -32.5793075856       -3.4852079097       -1.4264004569  MEMB      147             0.0000000000
     18312       147  PMPE      H16Y          -31.0262390452       -3.8122344965       -0.5655793030  MEMB      147             0.0000000000
     18313       147  PMPE      H16Z          -31.9452534255       -5.1726975486       -1.4290304930  MEMB      147             0.0000000000
     18314       148  PMPE      N              27.5415089591       10.8028295993      -21.5233891619  MEMB      148             0.0000000000
     18315       148  PMPE      HN1            27.3647231290       10.9463713854      -22.5381514034  MEMB      148             0.0000000000
     18316       148  PMPE      HN2            27.1310106583        9.8843180092      -21.2598979607  MEMB      148             0.0000000000
     18317       148  PMPE      HN3            27.0873447256       11.4962767067      -20.8953238704  MEMB      148             0.0000000000
     18318       148  PMPE      C12            29.0490675968       10.6856398630      -21.2263298996  MEMB      148             0.0000000000
     18319       148  PMPE      H12A           29.5383891572       10.9964321877      -22.1741133234  MEMB      148             0.0000000000
     18320       148  PMPE      H12B           29.3028816927        9.6214493686      -21.0329442970  MEMB      148             0.0000000000
     18321       148  PMPE      C11            29.4235369811       11.7255919678      -20.1554480114  MEMB      148             0.0000000000
     18322       148  PMPE      H11A           29.2626597489       12.7248974602      -20.6135179908  MEMB      148             0.0000000000
     18323       148  PMPE      H11B           30.5285241435       11.7420535555      -20.0411966177  MEMB      148             0.0000000000
     18324       148  PMPE      P              29.5093315787       10.5807668372      -17.8132759298  MEMB      148             0.0000000000
     18325       148  PMPE      O13            30.1480572854        9.4281185897      -18.4084597274  MEMB      148             0.0000000000
     18326       148  PMPE      O14            28.5755613732       10.2937557564      -16.7764551948  MEMB      148             0.0000000000
     18327       148  PMPE      O11            30.6682783630       11.4099247585      -17.1416582209  MEMB      148             0.0000000000
     18328       148  PMPE      O12            28.7807754972       11.5167070431      -18.9549838517  MEMB      148             0.0000000000
     18329       148  PMPE      C1             30.7584602821       12.7802837870      -17.4250350091  MEMB      148             0.0000000000
     18330       148  PMPE      HA             29.7533285807       13.2530797058      -17.4027787456  MEMB      148             0.0000000000
     18331       148  PMPE      HB             31.2321007373       13.0564233442      -18.3913335140  MEMB      148             0.0000000000
     18332       148  PMPE      C2             31.4432047240       13.5615338650      -16.2060874918  MEMB      148             0.0000000000
     18333       148  PMPE      HS             31.7446560230       14.5677633747      -16.5679580801  MEMB      148             0.0000000000
     18334       148  PMPE      O21            32.5786121197       12.7935044993      -15.7646744517  MEMB      148             0.0000000000
     18335       148  PMPE      C21            33.4379293449       13.3155486029      -14.9133424849  MEMB      148             0.0000000000
     18336       148  PMPE      O22            33.4264271797       14.4838515978      -14.5693313368  MEMB      148             0.0000000000
     18337       148  PMPE      C22            34.4508370572       12.3690423530      -14.3934682734  MEMB      148             0.0000000000
     18338       148  PMPE      H2R            35.4221885231       12.8611913603      -14.1730453884  MEMB      148             0.0000000000
     18339       148  PMPE      H2S            34.6928172368       11.5165237226      -15.0635269517  MEMB      148             0.0000000000
     18340       148  PMPE      C3             30.4287289151       13.8031241314      -15.0230396962  MEMB      148             0.0000000000
     18341       148  PMPE      HX             29.5066663042       14.1613073769      -15.5288326204  MEMB      148             0.0000000000
     18342       148  PMPE      HY             30.8192583765       14.6251066801      -14.3857390815  MEMB      148             0.0000000000
     18343       148  PMPE      O31            30.1364185439       12.6746012054      -14.2907122011  MEMB      148             0.0000000000
     18344       148  PMPE      C31            30.4377906792       12.7237976502      -12.9502990114  MEMB      148             0.0000000000
     18345       148  PMPE      O32            31.2059373508       13.5308542699      -12.4564056204  MEMB      148             0.0000000000
     18346       148  PMPE      C32            29.7290668946       11.5154096885      -12.2588779884  MEMB      148             0.0000000000
     18347       148  PMPE      H2X            30.2835587757       10.6448410554      -12.6699376127  MEMB      148             0.0000000000
     18348       148  PMPE      H2Y            28.6430126675       11.4988018818      -12.4923979550  MEMB      148             0.0000000000
     18349       148  PMPE      C23            34.0763856098       11.9667239796      -12.9151127314  MEMB      148             0.0000000000
     18350       148  PMPE      H3R            33.0189272977       11.6259969965      -12.9122625058  MEMB      148             0.0000000000
     18351       148  PMPE      H3S            34.2156240569       12.9344680146      -12.3874716505  MEMB      148             0.0000000000
     18352       148  PMPE      C24            35.1282945815       10.9610652108      -12.3746406703  MEMB      148             0.0000000000
     18353       148  PMPE      H4R            36.0504786355       11.4081153452      -12.8036432101  MEMB      148             0.0000000000
     18354       148  PMPE      H4S            35.0232387484        9.9378370881      -12.7945079696  MEMB      148             0.0000000000
     18355       148  PMPE      C25            35.3182894840       10.9017026735      -10.8309188123  MEMB      148             0.0000000000
     18356       148  PMPE      H5R            36.0751913550       10.2052676816      -10.4109199293  MEMB      148             0.0000000000
     18357       148  PMPE      H5S            34.3769750923       10.3980542122      -10.5233691404  MEMB      148             0.0000000000
     18358       148  PMPE      C26            35.5207353159       12.2396014744      -10.0811331983  MEMB      148             0.0000000000
     18359       148  PMPE      H6R            34.8752314347       13.0582845635      -10.4650647851  MEMB      148             0.0000000000
     18360       148  PMPE      H6S            36.5484472420       12.5473414766      -10.3699673139  MEMB      148             0.0000000000
     18361       148  PMPE      C27            35.2513173968       12.1809305793       -8.5085867487  MEMB      148             0.0000000000
     18362       148  PMPE      H7R            35.8128003525       12.9906552368       -7.9953580272  MEMB      148             0.0000000000
     18363       148  PMPE      H7S            35.8700102239       11.3214386671       -8.1727093044  MEMB      148             0.0000000000
     18364       148  PMPE      C28            33.8789999610       12.0191399255       -7.9083138690  MEMB      148             0.0000000000
     18365       148  PMPE      H8R            33.9088292208       11.8831776084       -6.8060677115  MEMB      148             0.0000000000
     18366       148  PMPE      H8S            33.4666105584       11.1068886785       -8.3900327624  MEMB      148             0.0000000000
     18367       148  PMPE      C29            32.9146501889       13.2052725121       -8.2109501981  MEMB      148             0.0000000000
     18368       148  PMPE      H9R            32.9041066997       13.4439490728       -9.2959592302  MEMB      148             0.0000000000
     18369       148  PMPE      C217           33.5410241253       14.3712685585       -7.4696050250  MEMB      148             0.0000000000
     18370       148  PMPE      H17R           33.6254915002       15.2690982585       -8.0693179125  MEMB      148             0.0000000000
     18371       148  PMPE      H17S           34.1015152602       14.2849404724       -6.5469528284  MEMB      148             0.0000000000
     18372       148  PMPE      C210           32.1130435269       14.0181233920       -7.2619945785  MEMB      148             0.0000000000
     18373       148  PMPE      H10R           31.2872215932       14.5161028826       -7.8136789723  MEMB      148             0.0000000000
     18374       148  PMPE      C211           31.7549005329       13.2493153862       -5.9776507012  MEMB      148             0.0000000000
     18375       148  PMPE      H11R           32.6776127211       13.0697414443       -5.3854719026  MEMB      148             0.0000000000
     18376       148  PMPE      H11S           31.3251859301       12.2695918664       -6.2773303575  MEMB      148             0.0000000000
     18377       148  PMPE      C212           30.8391505817       14.0694354288       -5.1198921959  MEMB      148             0.0000000000
     18378       148  PMPE      H12R           29.8212051560       14.0609882073       -5.5649060693  MEMB      148             0.0000000000
     18379       148  PMPE      H12S           31.3480733881       15.0551764551       -5.0596179302  MEMB      148             0.0000000000
     18380       148  PMPE      C213           30.7049198377       13.3154148111       -3.7429577837  MEMB      148             0.0000000000
     18381       148  PMPE      H13R           31.6900797832       12.8314762145       -3.5709581460  MEMB      148             0.0000000000
     18382       148  PMPE      H13S           29.9849737672       12.4698171771       -3.7119198438  MEMB      148             0.0000000000
     18383       148  PMPE      C214           30.2454202168       14.3184218101       -2.6777410121  MEMB      148             0.0000000000
     18384       148  PMPE      H14R           29.2116416710       14.6793680508       -2.8657329175  MEMB      148             0.0000000000
     18385       148  PMPE      H14S           30.9279470190       15.1940028111       -2.7205855218  MEMB      148             0.0000000000
     18386       148  PMPE      C215           30.2486761439       13.5966094878       -1.2912806764  MEMB      148             0.0000000000
     18387       148  PMPE      H15R           31.1326232293       12.9455471445       -1.1207618310  MEMB      148             0.0000000000
     18388       148  PMPE      H15S           29.4158741425       12.8627632117       -1.3385212078  MEMB      148             0.0000000000
     18389       148  PMPE      C216           29.9605687121       14.4628741103       -0.1146912517  MEMB      148             0.0000000000
     18390       148  PMPE      H16R           30.7309496175       15.2631162054       -0.1358335259  MEMB      148             0.0000000000
     18391       148  PMPE      H16S           28.9967426508       14.9947865822        0.0350736568  MEMB      148             0.0000000000
     18392       148  PMPE      H16T           30.0646372008       13.8341894242        0.7953888263  MEMB      148             0.0000000000
     18393       148  PMPE      C33            30.1920480708       11.4695475556      -10.7798557523  MEMB      148             0.0000000000
     18394       148  PMPE      H3X            30.0607569187       12.4103750967      -10.2037253892  MEMB      148             0.0000000000
     18395       148  PMPE      H3Y            31.2935850270       11.3252677750      -10.7908243488  MEMB      148             0.0000000000
     18396       148  PMPE      C34            29.3618849695       10.3249093058      -10.0970247217  MEMB      148             0.0000000000
     18397       148  PMPE      H4X            29.5668979473        9.4544658019      -10.7562805795  MEMB      148             0.0000000000
     18398       148  PMPE      H4Y            28.2761171658       10.5592180125      -10.1200190875  MEMB      148             0.0000000000
     18399       148  PMPE      C35            29.7350883845        9.9932462594       -8.6756264555  MEMB      148             0.0000000000
     18400       148  PMPE      H5X            29.0961503334        9.1450380214       -8.3490959915  MEMB      148             0.0000000000
     18401       148  PMPE      H5Y            29.5728529599       10.8914761084       -8.0422356049  MEMB      148             0.0000000000
     18402       148  PMPE      C36            31.1709936199        9.3954410427       -8.6262030495  MEMB      148             0.0000000000
     18403       148  PMPE      H6X            31.9048912129       10.1082050704       -9.0594265977  MEMB      148             0.0000000000
     18404       148  PMPE      H6Y            31.1186995825        8.4163058939       -9.1485824689  MEMB      148             0.0000000000
     18405       148  PMPE      C37            31.7401601471        9.1550801608       -7.1984869974  MEMB      148             0.0000000000
     18406       148  PMPE      H7X            31.5228655077       10.0227208079       -6.5394698711  MEMB      148             0.0000000000
     18407       148  PMPE      H7Y            32.8345547109        9.0181831216       -7.3322059295  MEMB      148             0.0000000000
     18408       148  PMPE      C38            31.1229096381        7.8963553533       -6.5973886095  MEMB      148             0.0000000000
     18409       148  PMPE      H8X            30.8287702622        7.1535217815       -7.3694003310  MEMB      148             0.0000000000
     18410       148  PMPE      H8Y            30.1639250069        8.2969337787       -6.2046973102  MEMB      148             0.0000000000
     18411       148  PMPE      C39            32.0026943095        7.2667825874       -5.5404975742  MEMB      148             0.0000000000
     18412       148  PMPE      H9X            33.0559780868        7.3848755722       -5.8736164060  MEMB      148             0.0000000000
     18413       148  PMPE      H9Y            31.8227919539        6.1709710301       -5.5744563161  MEMB      148             0.0000000000
     18414       148  PMPE      C310           31.7983335143        7.8571014522       -4.1501771877  MEMB      148             0.0000000000
     18415       148  PMPE      H10X           30.7552020619        7.6550711506       -3.8255519020  MEMB      148             0.0000000000
     18416       148  PMPE      H10Y           31.8745940368        8.9609963852       -4.2497814685  MEMB      148             0.0000000000
     18417       148  PMPE      C311           32.6734067183        7.1438509095       -3.1433521268  MEMB      148             0.0000000000
     18418       148  PMPE      H11X           33.7240343690        7.2682818865       -3.4824972549  MEMB      148             0.0000000000
     18419       148  PMPE      H11Y           32.4918984448        6.0574804152       -2.9978347649  MEMB      148             0.0000000000
     18420       148  PMPE      C312           32.5329682852        7.7392233446       -1.7212350421  MEMB      148             0.0000000000
     18421       148  PMPE      H12X           33.1751025861        7.1408645623       -1.0400963810  MEMB      148             0.0000000000
     18422       148  PMPE      H12Y           31.5237066972        7.4581286317       -1.3515087285  MEMB      148             0.0000000000
     18423       148  PMPE      C313           32.7544629059        9.1651193708       -1.7027268944  MEMB      148             0.0000000000
     18424       148  PMPE      H13X           31.8737691639        9.8013318886       -1.9349618227  MEMB      148             0.0000000000
     18425       148  PMPE      H13Y           33.4703996606        9.3851972230       -2.5232884361  MEMB      148             0.0000000000
     18426       148  PMPE      C314           33.2311774969        9.6385680853       -0.3219983932  MEMB      148             0.0000000000
     18427       148  PMPE      H14X           33.8813935390        8.8634113166        0.1369924681  MEMB      148             0.0000000000
     18428       148  PMPE      H14Y           32.3553034551        9.7748937615        0.3477632244  MEMB      148             0.0000000000
     18429       148  PMPE      C315           34.0583536965       10.9517289129       -0.2678824532  MEMB      148             0.0000000000
     18430       148  PMPE      H15X           33.4572356517       11.7234341679       -0.7946165120  MEMB      148             0.0000000000
     18431       148  PMPE      H15Y           35.1180961812       10.9508906904       -0.6014479188  MEMB      148             0.0000000000
     18432       148  PMPE      C316           34.2219623836       11.2614086164        1.2550798434  MEMB      148             0.0000000000
     18433       148  PMPE      H16X           34.8200951073       10.4993135575        1.7989261778  MEMB      148             0.0000000000
     18434       148  PMPE      H16Y           33.1971107977       11.3276654523        1.6788843308  MEMB      148             0.0000000000
     18435       148  PMPE      H16Z           34.7341783647       12.1952378315        1.5711771747  MEMB      148             0.0000000000
     18436       149  PYPG      C13            22.8999207558      -17.6633102361      -19.4825018198  MEMB      149             0.0000000000
     18437       149  PYPG      H13A           21.7891218510      -17.6755008996      -19.4997773534  MEMB      149             0.0000000000
     18438       149  PYPG      H13B           23.2263010289      -16.6146291962      -19.6500283993  MEMB      149             0.0000000000
     18439       149  PYPG      OC3            23.4785233794      -18.2786842630      -20.5872270963  MEMB      149             0.0000000000
     18440       149  PYPG      HO3            23.2840015112      -19.2063653717      -20.4350133886  MEMB      149             0.0000000000
     18441       149  PYPG      C12            23.4738200350      -18.1243616478      -18.1065229126  MEMB      149             0.0000000000
     18442       149  PYPG      H12A           22.9835560646      -19.0923730921      -17.8508392739  MEMB      149             0.0000000000
     18443       149  PYPG      OC2            23.1371248725      -17.1780944152      -17.0910153635  MEMB      149             0.0000000000
     18444       149  PYPG      HO2            23.6537811704      -17.4916625994      -16.3167685659  MEMB      149             0.0000000000
     18445       149  PYPG      C11            24.9794062055      -18.3677346427      -18.0896941229  MEMB      149             0.0000000000
     18446       149  PYPG      H11A           25.3206468412      -18.4182257729      -17.0336039170  MEMB      149             0.0000000000
     18447       149  PYPG      H11B           25.4034894431      -17.4479358199      -18.5462513398  MEMB      149             0.0000000000
     18448       149  PYPG      P              26.6898863972      -19.8318413237      -19.4085084094  MEMB      149             0.0000000000
     18449       149  PYPG      O13            27.3548498898      -18.5548479192      -19.4899530169  MEMB      149             0.0000000000
     18450       149  PYPG      O14            26.5375393085      -20.5975779281      -20.6531442246  MEMB      149             0.0000000000
     18451       149  PYPG      O11            27.3306235652      -20.7511765692      -18.2717967979  MEMB      149             0.0000000000
     18452       149  PYPG      O12            25.2417305946      -19.5336210692      -18.8196362642  MEMB      149             0.0000000000
     18453       149  PYPG      C1             26.8378938215      -22.0416663660      -17.9352891503  MEMB      149             0.0000000000
     18454       149  PYPG      HA             27.7386058662      -22.6916898033      -17.9578305296  MEMB      149             0.0000000000
     18455       149  PYPG      HB             26.1138920729      -22.4183025055      -18.6891376860  MEMB      149             0.0000000000
     18456       149  PYPG      C2             26.1529226095      -21.9607860840      -16.5127216573  MEMB      149             0.0000000000
     18457       149  PYPG      HS             25.2631514449      -21.3033320754      -16.6146163370  MEMB      149             0.0000000000
     18458       149  PYPG      O21            27.0822711756      -21.5115862808      -15.5758977530  MEMB      149             0.0000000000
     18459       149  PYPG      C21            26.5981675559      -20.7404276407      -14.5941584164  MEMB      149             0.0000000000
     18460       149  PYPG      O22            25.5616545193      -20.1318700364      -14.7940807227  MEMB      149             0.0000000000
     18461       149  PYPG      C22            27.5977600603      -20.7654837847      -13.3630181072  MEMB      149             0.0000000000
     18462       149  PYPG      H2R            28.4829092265      -20.1292170569      -13.5774866806  MEMB      149             0.0000000000
     18463       149  PYPG      H2S            27.8533226894      -21.8036046151      -13.0608369646  MEMB      149             0.0000000000
     18464       149  PYPG      C3             25.5626026418      -23.3581826352      -16.0992108582  MEMB      149             0.0000000000
     18465       149  PYPG      HX             26.4407845945      -24.0074971527      -15.8954744053  MEMB      149             0.0000000000
     18466       149  PYPG      HY             25.0387837075      -23.8801784054      -16.9283397474  MEMB      149             0.0000000000
     18467       149  PYPG      O31            24.5944283659      -23.1576468645      -15.0058964190  MEMB      149             0.0000000000
     18468       149  PYPG      C31            23.3324063651      -22.8878648393      -15.4446695222  MEMB      149             0.0000000000
     18469       149  PYPG      O32            22.8989591569      -22.7665249432      -16.5881117237  MEMB      149             0.0000000000
     18470       149  PYPG      C32            22.3977550510      -22.8023362275      -14.2945192042  MEMB      149             0.0000000000
     18471       149  PYPG      H2X            21.4636467466      -23.3413253852      -14.5614522180  MEMB      149             0.0000000000
     18472       149  PYPG      H2Y            22.7101441256      -23.3306977270      -13.3684697861  MEMB      149             0.0000000000
     18473       149  PYPG      C23            26.8962475272      -20.2802880043      -12.0325339716  MEMB      149             0.0000000000
     18474       149  PYPG      H3R            26.7436188350      -19.1798482366      -12.0249347074  MEMB      149             0.0000000000
     18475       149  PYPG      H3S            27.6486097986      -20.5108330939      -11.2482372395  MEMB      149             0.0000000000
     18476       149  PYPG      C24            25.5831262166      -20.9922140208      -11.5938594584  MEMB      149             0.0000000000
     18477       149  PYPG      H4R            24.9765472279      -21.1913704805      -12.5031006456  MEMB      149             0.0000000000
     18478       149  PYPG      H4S            25.0690532835      -20.3365081171      -10.8589446999  MEMB      149             0.0000000000
     18479       149  PYPG      C25            25.7522802084      -22.2910871735      -10.8583778860  MEMB      149             0.0000000000
     18480       149  PYPG      H5R            26.2520096116      -22.1304424587       -9.8792022209  MEMB      149             0.0000000000
     18481       149  PYPG      H5S            26.4228325674      -22.9099946622      -11.4921241183  MEMB      149             0.0000000000
     18482       149  PYPG      C26            24.5646615274      -23.0197496397      -10.3607576367  MEMB      149             0.0000000000
     18483       149  PYPG      H6R            24.0875287889      -23.4187914898      -11.2813179558  MEMB      149             0.0000000000
     18484       149  PYPG      H6S            23.8622801812      -22.4537659002       -9.7121872921  MEMB      149             0.0000000000
     18485       149  PYPG      C27            24.8094323750      -24.2705588844       -9.4757051109  MEMB      149             0.0000000000
     18486       149  PYPG      H7R            25.1605073898      -24.0250582730       -8.4506208835  MEMB      149             0.0000000000
     18487       149  PYPG      H7S            25.5289713633      -24.9603117881       -9.9664452138  MEMB      149             0.0000000000
     18488       149  PYPG      C28            23.4712419821      -25.0695586307       -9.1974676044  MEMB      149             0.0000000000
     18489       149  PYPG      H8R            23.3754290996      -25.5102590582      -10.2128123239  MEMB      149             0.0000000000
     18490       149  PYPG      H8S            22.6638109298      -24.3096162403       -9.1277270821  MEMB      149             0.0000000000
     18491       149  PYPG      C29            23.6513012977      -26.1824350049       -8.1843806060  MEMB      149             0.0000000000
     18492       149  PYPG      H9R            23.8841463601      -27.1797964621       -8.5856948512  MEMB      149             0.0000000000
     18493       149  PYPG      C210           23.4511104431      -26.0884492366       -6.8331218152  MEMB      149             0.0000000000
     18494       149  PYPG      H10R           23.4805364216      -26.9850207751       -6.1964955210  MEMB      149             0.0000000000
     18495       149  PYPG      C211           23.0415338774      -24.8308382395       -6.0631094896  MEMB      149             0.0000000000
     18496       149  PYPG      H11R           21.9434225154      -24.8164185455       -5.8949886380  MEMB      149             0.0000000000
     18497       149  PYPG      H11S           23.2727888195      -23.8952090595       -6.6157756886  MEMB      149             0.0000000000
     18498       149  PYPG      C212           23.8384091103      -24.8689631368       -4.6732156601  MEMB      149             0.0000000000
     18499       149  PYPG      H12R           23.5985024324      -25.8110671793       -4.1354374836  MEMB      149             0.0000000000
     18500       149  PYPG      H12S           23.4235535332      -24.0656386056       -4.0275488493  MEMB      149             0.0000000000
     18501       149  PYPG      C213           25.3271427520      -24.5936299180       -4.8571562276  MEMB      149             0.0000000000
     18502       149  PYPG      H13R           25.5279780115      -23.7073367406       -5.4962730804  MEMB      149             0.0000000000
     18503       149  PYPG      H13S           25.5803228459      -25.5571287566       -5.3489803135  MEMB      149             0.0000000000
     18504       149  PYPG      C214           26.1999337148      -24.2988255189       -3.6369440031  MEMB      149             0.0000000000
     18505       149  PYPG      H14R           27.2328197206      -24.0242488881       -3.9403834707  MEMB      149             0.0000000000
     18506       149  PYPG      H14S           25.8037910694      -23.3526149410       -3.2102387082  MEMB      149             0.0000000000
     18507       149  PYPG      C215           26.1505674163      -25.4863473112       -2.6516731380  MEMB      149             0.0000000000
     18508       149  PYPG      H15R           26.6345724498      -26.3344010137       -3.1816397745  MEMB      149             0.0000000000
     18509       149  PYPG      H15S           25.0734158083      -25.6626392407       -2.4443403932  MEMB      149             0.0000000000
     18510       149  PYPG      C216           27.0534938482      -25.2916981044       -1.4541716942  MEMB      149             0.0000000000
     18511       149  PYPG      H16R           28.0199378264      -24.8568918876       -1.7877119662  MEMB      149             0.0000000000
     18512       149  PYPG      H16S           27.1824137810      -26.2916403708       -0.9874626759  MEMB      149             0.0000000000
     18513       149  PYPG      H16T           26.4902163820      -24.7055069045       -0.6969261481  MEMB      149             0.0000000000
     18514       149  PYPG      C33            21.9430116458      -21.3254513921      -14.0356126481  MEMB      149             0.0000000000
     18515       149  PYPG      H3X            21.7444354243      -20.6790117296      -14.9170909076  MEMB      149             0.0000000000
     18516       149  PYPG      H3Y            22.7911489293      -20.9321438909      -13.4353683872  MEMB      149             0.0000000000
     18517       149  PYPG      C34            20.7890934520      -21.1618612700      -12.9811904446  MEMB      149             0.0000000000
     18518       149  PYPG      H4X            20.7260772500      -21.9389282649      -12.1896619087  MEMB      149             0.0000000000
     18519       149  PYPG      H4Y            19.7699656309      -21.1136197323      -13.4209315351  MEMB      149             0.0000000000
     18520       149  PYPG      C35            20.8069985173      -19.8121314075      -12.1637525007  MEMB      149             0.0000000000
     18521       149  PYPG      H5X            19.9339292958      -19.8140603611      -11.4766808186  MEMB      149             0.0000000000
     18522       149  PYPG      H5Y            20.7282737247      -19.0593420340      -12.9770367369  MEMB      149             0.0000000000
     18523       149  PYPG      C36            22.0657732470      -19.5943519470      -11.2839466570  MEMB      149             0.0000000000
     18524       149  PYPG      H6X            23.0136358036      -19.3934590641      -11.8275637148  MEMB      149             0.0000000000
     18525       149  PYPG      H6Y            22.2581896751      -20.4952075170      -10.6628536116  MEMB      149             0.0000000000
     18526       149  PYPG      C37            22.0720628932      -18.3762547302      -10.2998758498  MEMB      149             0.0000000000
     18527       149  PYPG      H7X            21.8495070364      -17.4486008552      -10.8693038285  MEMB      149             0.0000000000
     18528       149  PYPG      H7Y            21.2450948398      -18.3919278641       -9.5581221694  MEMB      149             0.0000000000
     18529       149  PYPG      C38            23.3393504094      -18.3475984121       -9.4632246888  MEMB      149             0.0000000000
     18530       149  PYPG      H8X            23.5191083099      -17.3763690907       -8.9545778046  MEMB      149             0.0000000000
     18531       149  PYPG      H8Y            24.2722521147      -18.5172293968      -10.0422246367  MEMB      149             0.0000000000
     18532       149  PYPG      C39            23.3595814470      -19.3094127978       -8.2661297253  MEMB      149             0.0000000000
     18533       149  PYPG      H9X            23.0879393142      -20.3454721819       -8.5612786506  MEMB      149             0.0000000000
     18534       149  PYPG      H9Y            22.5570771820      -18.8910882704       -7.6216820337  MEMB      149             0.0000000000
     18535       149  PYPG      C310           24.6499404579      -19.3611722939       -7.5008657154  MEMB      149             0.0000000000
     18536       149  PYPG      H10X           24.9936130720      -18.3715083825       -7.1310338229  MEMB      149             0.0000000000
     18537       149  PYPG      H10Y           25.2872553197      -19.7619863407       -8.3178715363  MEMB      149             0.0000000000
     18538       149  PYPG      C311           24.5436198792      -20.3810565278       -6.3444939969  MEMB      149             0.0000000000
     18539       149  PYPG      H11X           25.5799684579      -20.5921806757       -6.0043039028  MEMB      149             0.0000000000
     18540       149  PYPG      H11Y           24.1422672432      -21.3359242429       -6.7463204767  MEMB      149             0.0000000000
     18541       149  PYPG      C312           23.8006776307      -19.8905646513       -5.1671499698  MEMB      149             0.0000000000
     18542       149  PYPG      H12X           24.4811262915      -19.2297673034       -4.5886540048  MEMB      149             0.0000000000
     18543       149  PYPG      H12Y           23.0782754128      -19.2237593987       -5.6846697256  MEMB      149             0.0000000000
     18544       149  PYPG      C313           23.2395986380      -20.9262103882       -4.2430293765  MEMB      149             0.0000000000
     18545       149  PYPG      H13X           22.8243927714      -21.7450046879       -4.8687298377  MEMB      149             0.0000000000
     18546       149  PYPG      H13Y           24.1382023174      -21.4356956665       -3.8340588542  MEMB      149             0.0000000000
     18547       149  PYPG      C314           22.0738484037      -20.4900823429       -3.2854967381  MEMB      149             0.0000000000
     18548       149  PYPG      H14X           22.4102291421      -19.4738872988       -2.9879797441  MEMB      149             0.0000000000
     18549       149  PYPG      H14Y           21.0782052603      -20.4705287285       -3.7780746517  MEMB      149             0.0000000000
     18550       149  PYPG      C315           22.0618682468      -21.2136432249       -1.9087705943  MEMB      149             0.0000000000
     18551       149  PYPG      H15X           21.0857277891      -20.9626984775       -1.4413332090  MEMB      149             0.0000000000
     18552       149  PYPG      H15Y           21.9849576944      -22.3206801987       -1.9623777592  MEMB      149             0.0000000000
     18553       149  PYPG      C316           23.2594394548      -20.8143806280       -1.0920755568  MEMB      149             0.0000000000
     18554       149  PYPG      H16X           23.2758457961      -21.3361233288       -0.1113422571  MEMB      149             0.0000000000
     18555       149  PYPG      H16Y           23.2291812297      -19.7130959137       -0.9486282563  MEMB      149             0.0000000000
     18556       149  PYPG      H16Z           24.1133929710      -21.2154786242       -1.6787647735  MEMB      149             0.0000000000
     18557       150  POPE      N              29.0601998845       -1.5384250389      -18.6767440690  MEMB      150             0.0000000000
     18558       150  POPE      HN1            28.1928787388       -2.1082335574      -18.6083916920  MEMB      150             0.0000000000
     18559       150  POPE      HN2            28.7326478668       -0.5522715874      -18.7193011307  MEMB      150             0.0000000000
     18560       150  POPE      HN3            29.6975120489       -1.7705395679      -19.4651322541  MEMB      150             0.0000000000
     18561       150  POPE      C12            29.9842807208       -1.8265656381      -17.5007501852  MEMB      150             0.0000000000
     18562       150  POPE      H12A           29.5064696265       -1.8571392116      -16.4982120570  MEMB      150             0.0000000000
     18563       150  POPE      H12B           30.7226575471       -0.9979875417      -17.4499662378  MEMB      150             0.0000000000
     18564       150  POPE      C11            30.9006936091       -3.0193983305      -17.6448078140  MEMB      150             0.0000000000
     18565       150  POPE      H11A           30.2456690756       -3.9145360201      -17.7079933827  MEMB      150             0.0000000000
     18566       150  POPE      H11B           31.5986908567       -3.2512443393      -16.8121205332  MEMB      150             0.0000000000
     18567       150  POPE      P              31.9854419590       -4.1691468990      -19.7020847472  MEMB      150             0.0000000000
     18568       150  POPE      O13            33.0496990213       -3.9076438586      -20.6869422037  MEMB      150             0.0000000000
     18569       150  POPE      O14            30.7359369500       -4.6230671508      -20.2755357518  MEMB      150             0.0000000000
     18570       150  POPE      O11            32.5926913394       -5.1876414418      -18.6942571513  MEMB      150             0.0000000000
     18571       150  POPE      O12            31.6479093140       -2.8928686007      -18.8188780776  MEMB      150             0.0000000000
     18572       150  POPE      C1             33.6457133155       -4.7647444099      -17.8709905856  MEMB      150             0.0000000000
     18573       150  POPE      HA             33.5210160897       -3.7696050043      -17.3930060148  MEMB      150             0.0000000000
     18574       150  POPE      HB             34.6112449083       -4.7648591152      -18.4205993090  MEMB      150             0.0000000000
     18575       150  POPE      C2             33.7904594080       -5.6535531237      -16.6039780157  MEMB      150             0.0000000000
     18576       150  POPE      HS             33.7009233326       -6.7192147310      -16.9050923297  MEMB      150             0.0000000000
     18577       150  POPE      O21            32.5652404094       -5.4211497743      -15.8631050943  MEMB      150             0.0000000000
     18578       150  POPE      C21            32.1279569952       -6.2835437870      -15.0156381903  MEMB      150             0.0000000000
     18579       150  POPE      O22            32.7310311765       -7.2718900217      -14.6381304233  MEMB      150             0.0000000000
     18580       150  POPE      C22            30.7807664484       -5.8642538542      -14.4645898144  MEMB      150             0.0000000000
     18581       150  POPE      H2R            30.1277922147       -5.4889911105      -15.2813661223  MEMB      150             0.0000000000
     18582       150  POPE      H2S            31.0263101060       -5.0271448226      -13.7766378758  MEMB      150             0.0000000000
     18583       150  POPE      C3             34.9974622196       -5.3671536027      -15.7651162817  MEMB      150             0.0000000000
     18584       150  POPE      HX             35.7595725622       -5.4593468783      -16.5682408154  MEMB      150             0.0000000000
     18585       150  POPE      HY             35.1595553554       -6.1304071973      -14.9742364823  MEMB      150             0.0000000000
     18586       150  POPE      O31            34.9026248771       -4.0022807222      -15.2868349140  MEMB      150             0.0000000000
     18587       150  POPE      C31            34.5780353304       -3.8421695847      -13.9713331978  MEMB      150             0.0000000000
     18588       150  POPE      O32            34.4976439661       -4.7396394991      -13.1554763534  MEMB      150             0.0000000000
     18589       150  POPE      C32            34.3406344219       -2.3090477461      -13.7183034878  MEMB      150             0.0000000000
     18590       150  POPE      H2X            33.6057492057       -1.9915857913      -14.4886817647  MEMB      150             0.0000000000
     18591       150  POPE      H2Y            35.3159002529       -1.8062355487      -13.8925392955  MEMB      150             0.0000000000
     18592       150  POPE      C23            30.0505586789       -7.0337760328      -13.7934216525  MEMB      150             0.0000000000
     18593       150  POPE      H3R            30.7042743181       -7.7127366649      -13.2052131850  MEMB      150             0.0000000000
     18594       150  POPE      H3S            29.4337867609       -7.6767955883      -14.4570772637  MEMB      150             0.0000000000
     18595       150  POPE      C24            28.9839960334       -6.6130383703      -12.7292410724  MEMB      150             0.0000000000
     18596       150  POPE      H4R            28.1541836463       -7.3516763688      -12.7413430493  MEMB      150             0.0000000000
     18597       150  POPE      H4S            28.6030526813       -5.6375993333      -13.1003498288  MEMB      150             0.0000000000
     18598       150  POPE      C25            29.6451065179       -6.4706958551      -11.3061316615  MEMB      150             0.0000000000
     18599       150  POPE      H5R            30.4721590813       -5.7290568854      -11.2894924293  MEMB      150             0.0000000000
     18600       150  POPE      H5S            30.1307901403       -7.4419996510      -11.0716075677  MEMB      150             0.0000000000
     18601       150  POPE      C26            28.6013288643       -6.2653729595      -10.1919339982  MEMB      150             0.0000000000
     18602       150  POPE      H6R            27.9092208273       -7.1344178941      -10.1836533961  MEMB      150             0.0000000000
     18603       150  POPE      H6S            27.9343048041       -5.3933640461      -10.3622294105  MEMB      150             0.0000000000
     18604       150  POPE      C27            29.1695289306       -6.2220367203       -8.7767434204  MEMB      150             0.0000000000
     18605       150  POPE      H7R            29.2617850018       -7.2840226440       -8.4637012039  MEMB      150             0.0000000000
     18606       150  POPE      H7S            28.3289811420       -5.7719703545       -8.2064452270  MEMB      150             0.0000000000
     18607       150  POPE      C28            30.3764138084       -5.2578752462       -8.5510515215  MEMB      150             0.0000000000
     18608       150  POPE      H8R            30.0730373909       -4.1927812721       -8.6397009477  MEMB      150             0.0000000000
     18609       150  POPE      H8S            31.2135465615       -5.4558689823       -9.2541356609  MEMB      150             0.0000000000
     18610       150  POPE      C29            30.7542157875       -5.6217420320       -7.1562832167  MEMB      150             0.0000000000
     18611       150  POPE      H91            30.0952420790       -6.3271934915       -6.6289390200  MEMB      150             0.0000000000
     18612       150  POPE      C210           31.9122051892       -5.1315124316       -6.5708594000  MEMB      150             0.0000000000
     18613       150  POPE      H101           32.0995174994       -5.5884807206       -5.5879584230  MEMB      150             0.0000000000
     18614       150  POPE      C211           33.0290939919       -4.1807695792       -7.0053171510  MEMB      150             0.0000000000
     18615       150  POPE      H11R           32.7240415855       -3.4773395915       -7.8093383500  MEMB      150             0.0000000000
     18616       150  POPE      H11S           33.7829663160       -4.8071945931       -7.5283755866  MEMB      150             0.0000000000
     18617       150  POPE      C212           33.6585491533       -3.4466057617       -5.7962893146  MEMB      150             0.0000000000
     18618       150  POPE      H12R           34.3616250357       -2.6414022905       -6.0990322034  MEMB      150             0.0000000000
     18619       150  POPE      H12S           34.3668841462       -4.1520794236       -5.3116358910  MEMB      150             0.0000000000
     18620       150  POPE      C213           32.6981633336       -2.7099818383       -4.9467887993  MEMB      150             0.0000000000
     18621       150  POPE      H13R           31.9384215129       -3.3721268191       -4.4791593036  MEMB      150             0.0000000000
     18622       150  POPE      H13S           32.2112354133       -1.8173422613       -5.3944681792  MEMB      150             0.0000000000
     18623       150  POPE      C214           33.3783924905       -2.0701008563       -3.6756761667  MEMB      150             0.0000000000
     18624       150  POPE      H14R           32.5703778600       -1.5723049430       -3.0980675121  MEMB      150             0.0000000000
     18625       150  POPE      H14S           34.1155175383       -1.2635875958       -3.8769337707  MEMB      150             0.0000000000
     18626       150  POPE      C215           34.0386953605       -3.0124800832       -2.6723168215  MEMB      150             0.0000000000
     18627       150  POPE      H15R           34.4278533322       -2.4908343645       -1.7718928757  MEMB      150             0.0000000000
     18628       150  POPE      H15S           34.8390908893       -3.5518680532       -3.2225423416  MEMB      150             0.0000000000
     18629       150  POPE      C216           33.0459403662       -4.2119582686       -2.2458737893  MEMB      150             0.0000000000
     18630       150  POPE      H16R           32.9619886622       -4.9679766513       -3.0556318440  MEMB      150             0.0000000000
     18631       150  POPE      H16S           32.0182881521       -3.7908191249       -2.2159715679  MEMB      150             0.0000000000
     18632       150  POPE      C217           33.3439250801       -4.9053106226       -0.8884263814  MEMB      150             0.0000000000
     18633       150  POPE      H17R           34.3860243831       -5.2714218919       -1.0080614718  MEMB      150             0.0000000000
     18634       150  POPE      H17S           32.7549571335       -5.8461365631       -0.8406346016  MEMB      150             0.0000000000
     18635       150  POPE      C218           33.3309774333       -4.1611054090        0.4384226283  MEMB      150             0.0000000000
     18636       150  POPE      H18R           32.4204962142       -4.4406026339        1.0104591974  MEMB      150             0.0000000000
     18637       150  POPE      H18S           33.3160939688       -3.0618226663        0.2781813741  MEMB      150             0.0000000000
     18638       150  POPE      H18T           34.2177727220       -4.4121299389        1.0588265787  MEMB      150             0.0000000000
     18639       150  POPE      C33            33.9734040868       -1.8797686657      -12.2304385462  MEMB      150             0.0000000000
     18640       150  POPE      H3X            33.7557524165       -0.7906704285      -12.2019110970  MEMB      150             0.0000000000
     18641       150  POPE      H3Y            34.7218308601       -2.0927971820      -11.4374710863  MEMB      150             0.0000000000
     18642       150  POPE      C34            32.6747760833       -2.5282299811      -11.6554660129  MEMB      150             0.0000000000
     18643       150  POPE      H4X            32.6978795628       -2.2438736746      -10.5817211830  MEMB      150             0.0000000000
     18644       150  POPE      H4Y            32.8202330840       -3.6273867359      -11.7263013564  MEMB      150             0.0000000000
     18645       150  POPE      C35            31.3846804921       -1.9545655079      -12.2552666812  MEMB      150             0.0000000000
     18646       150  POPE      H5X            31.4907953260       -2.0734853932      -13.3547752082  MEMB      150             0.0000000000
     18647       150  POPE      H5Y            31.4948148369       -0.8710910339      -12.0355523870  MEMB      150             0.0000000000
     18648       150  POPE      C36            30.0293934113       -2.5097512083      -11.7622145727  MEMB      150             0.0000000000
     18649       150  POPE      H6X            30.3241387467       -3.5479481717      -11.4984092321  MEMB      150             0.0000000000
     18650       150  POPE      H6Y            29.3023446417       -2.5188287404      -12.6022377138  MEMB      150             0.0000000000
     18651       150  POPE      C37            29.3033393219       -1.7454128391      -10.6232881857  MEMB      150             0.0000000000
     18652       150  POPE      H7X            29.4723740474       -0.6680387296      -10.8354517360  MEMB      150             0.0000000000
     18653       150  POPE      H7Y            29.8345791144       -1.8660852870       -9.6550195745  MEMB      150             0.0000000000
     18654       150  POPE      C38            27.8368230171       -2.0190432704      -10.6358500678  MEMB      150             0.0000000000
     18655       150  POPE      H8X            27.6467637316       -3.0976473655      -10.8224290832  MEMB      150             0.0000000000
     18656       150  POPE      H8Y            27.4150071297       -1.6066006003      -11.5772757877  MEMB      150             0.0000000000
     18657       150  POPE      C39            27.0119771481       -1.5736422877       -9.4747490607  MEMB      150             0.0000000000
     18658       150  POPE      H9X            26.1158687217       -2.2294377640       -9.4394922514  MEMB      150             0.0000000000
     18659       150  POPE      H9Y            26.8254890415       -0.4891217255       -9.6275830474  MEMB      150             0.0000000000
     18660       150  POPE      C310           27.6784993533       -1.8990914541       -8.1498893921  MEMB      150             0.0000000000
     18661       150  POPE      H10X           28.6809851240       -1.4496789593       -7.9844457628  MEMB      150             0.0000000000
     18662       150  POPE      H10Y           27.7711079398       -3.0038820787       -8.0779010584  MEMB      150             0.0000000000
     18663       150  POPE      C311           26.8095066306       -1.4767351124       -6.8892524176  MEMB      150             0.0000000000
     18664       150  POPE      H11X           25.7936606355       -1.8831485455       -7.0821407797  MEMB      150             0.0000000000
     18665       150  POPE      H11Y           26.7073769617       -0.3888141928       -6.6884577301  MEMB      150             0.0000000000
     18666       150  POPE      C312           27.3593828934       -2.1242695645       -5.5340380017  MEMB      150             0.0000000000
     18667       150  POPE      H12X           27.0497359542       -1.6379597108       -4.5843307762  MEMB      150             0.0000000000
     18668       150  POPE      H12Y           28.4434701869       -1.9324113064       -5.6832566359  MEMB      150             0.0000000000
     18669       150  POPE      C313           27.1510369994       -3.6738058215       -5.4624491879  MEMB      150             0.0000000000
     18670       150  POPE      H13X           27.6320759648       -4.1957745907       -6.3171254238  MEMB      150             0.0000000000
     18671       150  POPE      H13Y           26.0626209417       -3.8945072786       -5.4934657655  MEMB      150             0.0000000000
     18672       150  POPE      C314           27.7539859893       -4.1374198474       -4.0899015266  MEMB      150             0.0000000000
     18673       150  POPE      H14X           27.3735684228       -3.4282323171       -3.3239670746  MEMB      150             0.0000000000
     18674       150  POPE      H14Y           28.8629828234       -4.0819827515       -4.0528340958  MEMB      150             0.0000000000
     18675       150  POPE      C315           27.4548049120       -5.6388198892       -3.6664069404  MEMB      150             0.0000000000
     18676       150  POPE      H15X           28.1903576352       -5.7806223892       -2.8459343368  MEMB      150             0.0000000000
     18677       150  POPE      H15Y           27.4694342402       -6.4169241182       -4.4592880798  MEMB      150             0.0000000000
     18678       150  POPE      C316           25.9931023487       -5.8546333209       -3.0052261863  MEMB      150             0.0000000000
     18679       150  POPE      H16X           25.9647680647       -6.8213621229       -2.4584598472  MEMB      150             0.0000000000
     18680       150  POPE      H16Y           25.2506862190       -5.6808235252       -3.8132676911  MEMB      150             0.0000000000
     18681       150  POPE      H16Z           25.8743806332       -5.0532774940       -2.2449280775  MEMB      150             0.0000000000
     18682       151  PMPE      N             -24.7407913785      -18.1287272893      -19.5387706533  MEMB      151             0.0000000000
     18683       151  PMPE      HN1           -25.2359384560      -18.3011013865      -20.4369445350  MEMB      151             0.0000000000
     18684       151  PMPE      HN2           -25.3691227387      -18.5196802053      -18.8080480487  MEMB      151             0.0000000000
     18685       151  PMPE      HN3           -24.6482503827      -17.1131311128      -19.3348088349  MEMB      151             0.0000000000
     18686       151  PMPE      C12           -23.4038146115      -18.7217122890      -19.4211246106  MEMB      151             0.0000000000
     18687       151  PMPE      H12A          -23.0197305920      -18.1731156588      -18.5346471599  MEMB      151             0.0000000000
     18688       151  PMPE      H12B          -22.8918329622      -18.5956191891      -20.3990286993  MEMB      151             0.0000000000
     18689       151  PMPE      C11           -23.4811930913      -20.2423968825      -19.2205618946  MEMB      151             0.0000000000
     18690       151  PMPE      H11A          -24.0709050370      -20.8658478810      -19.9261606101  MEMB      151             0.0000000000
     18691       151  PMPE      H11B          -23.9026679240      -20.3890772678      -18.2031313675  MEMB      151             0.0000000000
     18692       151  PMPE      P             -21.8051798461      -22.2424592596      -18.8300659606  MEMB      151             0.0000000000
     18693       151  PMPE      O13           -20.5002610309      -22.5769628539      -19.3778039541  MEMB      151             0.0000000000
     18694       151  PMPE      O14           -22.9374828542      -23.1566231925      -19.1207977655  MEMB      151             0.0000000000
     18695       151  PMPE      O11           -21.7247367341      -22.0200463936      -17.2416495251  MEMB      151             0.0000000000
     18696       151  PMPE      O12           -22.1780476176      -20.7604877891      -19.2492256372  MEMB      151             0.0000000000
     18697       151  PMPE      C1            -20.5097113160      -21.4172676021      -16.7258506929  MEMB      151             0.0000000000
     18698       151  PMPE      HA            -19.9704364421      -20.7901856206      -17.4676537703  MEMB      151             0.0000000000
     18699       151  PMPE      HB            -19.9066023228      -22.3301147050      -16.5327427835  MEMB      151             0.0000000000
     18700       151  PMPE      C2            -20.6710813809      -20.5814409728      -15.3868598891  MEMB      151             0.0000000000
     18701       151  PMPE      HS            -19.7020721651      -20.2742660623      -14.9385456371  MEMB      151             0.0000000000
     18702       151  PMPE      O21           -21.3090322153      -21.3736090827      -14.3298161966  MEMB      151             0.0000000000
     18703       151  PMPE      C21           -20.4700898328      -22.1102954901      -13.6656223046  MEMB      151             0.0000000000
     18704       151  PMPE      O22           -19.3142439623      -22.4095761139      -13.9543222436  MEMB      151             0.0000000000
     18705       151  PMPE      C22           -21.3425152102      -22.8033615785      -12.5928032247  MEMB      151             0.0000000000
     18706       151  PMPE      H2R           -21.6165349301      -23.7861141044      -13.0326116350  MEMB      151             0.0000000000
     18707       151  PMPE      H2S           -22.3716636077      -22.3854800452      -12.5693610069  MEMB      151             0.0000000000
     18708       151  PMPE      C3            -21.4639143501      -19.2539267186      -15.7472874669  MEMB      151             0.0000000000
     18709       151  PMPE      HX            -22.3495680348      -19.6255113684      -16.3057348794  MEMB      151             0.0000000000
     18710       151  PMPE      HY            -20.9786108482      -18.6514563936      -16.5446777521  MEMB      151             0.0000000000
     18711       151  PMPE      O31           -21.7683730800      -18.4782792411      -14.5726992038  MEMB      151             0.0000000000
     18712       151  PMPE      C31           -20.7738954671      -17.7400468340      -14.0254300479  MEMB      151             0.0000000000
     18713       151  PMPE      O32           -19.6335879734      -17.7304446861      -14.3851735971  MEMB      151             0.0000000000
     18714       151  PMPE      C32           -21.4183669737      -16.9284729905      -12.8836310295  MEMB      151             0.0000000000
     18715       151  PMPE      H2X           -22.4095335652      -16.4773042768      -13.1035319933  MEMB      151             0.0000000000
     18716       151  PMPE      H2Y           -20.7468864942      -16.1206950450      -12.5217884478  MEMB      151             0.0000000000
     18717       151  PMPE      C23           -20.6970546961      -22.8876504287      -11.1578250689  MEMB      151             0.0000000000
     18718       151  PMPE      H3R           -20.1731135306      -21.9775550322      -10.7951503396  MEMB      151             0.0000000000
     18719       151  PMPE      H3S           -20.0215343013      -23.7576574906      -11.3030174627  MEMB      151             0.0000000000
     18720       151  PMPE      C24           -21.8431087298      -23.2758808793      -10.1480335265  MEMB      151             0.0000000000
     18721       151  PMPE      H4R           -22.3133216555      -24.1856875684      -10.5786989289  MEMB      151             0.0000000000
     18722       151  PMPE      H4S           -22.5867413338      -22.4524105608      -10.0912158125  MEMB      151             0.0000000000
     18723       151  PMPE      C25           -21.4823489315      -23.7730843993       -8.7526280450  MEMB      151             0.0000000000
     18724       151  PMPE      H5R           -20.7252164627      -24.5804185196       -8.8489769190  MEMB      151             0.0000000000
     18725       151  PMPE      H5S           -22.3738406492      -24.2581964421       -8.3007105313  MEMB      151             0.0000000000
     18726       151  PMPE      C26           -20.8127844625      -22.7644488326       -7.8551715526  MEMB      151             0.0000000000
     18727       151  PMPE      H6R           -21.6317350941      -22.1541385165       -7.4179501853  MEMB      151             0.0000000000
     18728       151  PMPE      H6S           -20.0504939759      -22.1094799186       -8.3287215693  MEMB      151             0.0000000000
     18729       151  PMPE      C27           -20.0792993562      -23.4699535009       -6.6906522359  MEMB      151             0.0000000000
     18730       151  PMPE      H7R           -19.2116092321      -24.0502364219       -7.0710555235  MEMB      151             0.0000000000
     18731       151  PMPE      H7S           -20.8071208938      -24.1619095072       -6.2154751703  MEMB      151             0.0000000000
     18732       151  PMPE      C28           -19.5873069114      -22.3648468514       -5.6642367222  MEMB      151             0.0000000000
     18733       151  PMPE      H8R           -18.9438927135      -21.7301775537       -6.3104052748  MEMB      151             0.0000000000
     18734       151  PMPE      H8S           -18.9668734342      -22.9544044133       -4.9558538630  MEMB      151             0.0000000000
     18735       151  PMPE      C29           -20.7286596837      -21.6110482051       -4.9469622180  MEMB      151             0.0000000000
     18736       151  PMPE      H9R           -21.7562462505      -22.0290282003       -5.0076207609  MEMB      151             0.0000000000
     18737       151  PMPE      C217          -20.7986103186      -20.1289910585       -5.2986869699  MEMB      151             0.0000000000
     18738       151  PMPE      H17R          -21.7828347846      -19.6773985528       -5.3146677911  MEMB      151             0.0000000000
     18739       151  PMPE      H17S          -19.9494808648      -19.7549251740       -5.8572047744  MEMB      151             0.0000000000
     18740       151  PMPE      C210          -20.5150379566      -20.5253041914       -3.8845538423  MEMB      151             0.0000000000
     18741       151  PMPE      H10R          -21.3419181307      -20.4150752175       -3.1507694072  MEMB      151             0.0000000000
     18742       151  PMPE      C211          -19.1391474679      -20.4054403969       -3.4025480732  MEMB      151             0.0000000000
     18743       151  PMPE      H11R          -18.8928927845      -19.4041120250       -2.9890014666  MEMB      151             0.0000000000
     18744       151  PMPE      H11S          -18.3489335464      -20.6126409323       -4.1555096112  MEMB      151             0.0000000000
     18745       151  PMPE      C212          -18.9346316039      -21.5163585037       -2.2663086416  MEMB      151             0.0000000000
     18746       151  PMPE      H12R          -19.2155886698      -22.5309966435       -2.6211226335  MEMB      151             0.0000000000
     18747       151  PMPE      H12S          -19.5810044478      -21.1956092773       -1.4215335878  MEMB      151             0.0000000000
     18748       151  PMPE      C213          -17.4518848683      -21.5739810702       -1.8468868407  MEMB      151             0.0000000000
     18749       151  PMPE      H13R          -17.1345991847      -20.5795979609       -1.4662917311  MEMB      151             0.0000000000
     18750       151  PMPE      H13S          -16.9226359266      -21.8016605673       -2.7968227349  MEMB      151             0.0000000000
     18751       151  PMPE      C214          -17.0720132626      -22.6102759410       -0.8698371809  MEMB      151             0.0000000000
     18752       151  PMPE      H14R          -15.9968923085      -22.5063644721       -0.6097650715  MEMB      151             0.0000000000
     18753       151  PMPE      H14S          -17.3229531810      -23.6491228593       -1.1733946815  MEMB      151             0.0000000000
     18754       151  PMPE      C215          -17.8231412243      -22.3457732361        0.4932897907  MEMB      151             0.0000000000
     18755       151  PMPE      H15R          -17.9933134116      -23.3475051033        0.9426186776  MEMB      151             0.0000000000
     18756       151  PMPE      H15S          -18.7332735538      -21.7112173706        0.4356812653  MEMB      151             0.0000000000
     18757       151  PMPE      C216          -16.8779810271      -21.5390172712        1.4635011751  MEMB      151             0.0000000000
     18758       151  PMPE      H16R          -16.7230697069      -20.5010058042        1.0990076268  MEMB      151             0.0000000000
     18759       151  PMPE      H16S          -17.4564383133      -21.3908167435        2.4003827317  MEMB      151             0.0000000000
     18760       151  PMPE      H16T          -15.8588848910      -21.9525181817        1.6209230204  MEMB      151             0.0000000000
     18761       151  PMPE      C33           -21.5424815786      -17.8185508285      -11.6061004461  MEMB      151             0.0000000000
     18762       151  PMPE      H3X           -20.6045775035      -18.3837135047      -11.4183564752  MEMB      151             0.0000000000
     18763       151  PMPE      H3Y           -22.3146761256      -18.6016814884      -11.7633982482  MEMB      151             0.0000000000
     18764       151  PMPE      C34           -21.9239515237      -16.9823837085      -10.3226963624  MEMB      151             0.0000000000
     18765       151  PMPE      H4X           -22.8401360803      -16.3820510396      -10.5085120769  MEMB      151             0.0000000000
     18766       151  PMPE      H4Y           -21.1413523877      -16.2144759298      -10.1433171917  MEMB      151             0.0000000000
     18767       151  PMPE      C35           -22.3453416568      -17.8127618265       -9.0721990483  MEMB      151             0.0000000000
     18768       151  PMPE      H5X           -22.6954588718      -17.1087826274       -8.2872457054  MEMB      151             0.0000000000
     18769       151  PMPE      H5Y           -21.4496446299      -18.3256407479       -8.6610985512  MEMB      151             0.0000000000
     18770       151  PMPE      C36           -23.4361933174      -18.7582829267       -9.3827256855  MEMB      151             0.0000000000
     18771       151  PMPE      H6X           -23.1095183341      -19.6042094542      -10.0246073641  MEMB      151             0.0000000000
     18772       151  PMPE      H6Y           -24.1898825410      -18.1522546950       -9.9295367296  MEMB      151             0.0000000000
     18773       151  PMPE      C37           -24.0492129458      -19.4654038367       -8.0980920002  MEMB      151             0.0000000000
     18774       151  PMPE      H7X           -24.6366745624      -18.7320146353       -7.5053439176  MEMB      151             0.0000000000
     18775       151  PMPE      H7Y           -23.0974185861      -19.7393797968       -7.5947575749  MEMB      151             0.0000000000
     18776       151  PMPE      C38           -24.9046961917      -20.6742231009       -8.5503775013  MEMB      151             0.0000000000
     18777       151  PMPE      H8X           -24.2875834919      -21.3712079378       -9.1567642044  MEMB      151             0.0000000000
     18778       151  PMPE      H8Y           -25.6581666907      -20.2408353177       -9.2423148749  MEMB      151             0.0000000000
     18779       151  PMPE      C39           -25.6865440948      -21.3771601025       -7.4363026819  MEMB      151             0.0000000000
     18780       151  PMPE      H9X           -26.5268131141      -21.9252642956       -7.9136408069  MEMB      151             0.0000000000
     18781       151  PMPE      H9Y           -26.2830676985      -20.6617704740       -6.8307469537  MEMB      151             0.0000000000
     18782       151  PMPE      C310          -24.7805738526      -22.3310590005       -6.7161408352  MEMB      151             0.0000000000
     18783       151  PMPE      H10X          -23.9446866321      -21.6901830374       -6.3627403811  MEMB      151             0.0000000000
     18784       151  PMPE      H10Y          -24.2761386604      -23.0448448879       -7.4019804501  MEMB      151             0.0000000000
     18785       151  PMPE      C311          -25.5526101474      -22.9794055620       -5.5978103777  MEMB      151             0.0000000000
     18786       151  PMPE      H11X          -26.1723037236      -23.8183536458       -5.9805199287  MEMB      151             0.0000000000
     18787       151  PMPE      H11Y          -26.2642824359      -22.1812000857       -5.2966260661  MEMB      151             0.0000000000
     18788       151  PMPE      C312          -24.6300266486      -23.4725399208       -4.4890430069  MEMB      151             0.0000000000
     18789       151  PMPE      H12X          -25.3162943639      -23.8739111127       -3.7129897421  MEMB      151             0.0000000000
     18790       151  PMPE      H12Y          -24.1613765260      -22.5807732153       -4.0205986781  MEMB      151             0.0000000000
     18791       151  PMPE      C313          -23.6618773000      -24.6372970360       -4.8814765964  MEMB      151             0.0000000000
     18792       151  PMPE      H13X          -23.1215018335      -24.4010642494       -5.8230228298  MEMB      151             0.0000000000
     18793       151  PMPE      H13Y          -24.2796719019      -25.5037304065       -5.2007623588  MEMB      151             0.0000000000
     18794       151  PMPE      C314          -22.6929360345      -24.9674217907       -3.7489270434  MEMB      151             0.0000000000
     18795       151  PMPE      H14X          -22.4350295847      -23.9989592694       -3.2694627255  MEMB      151             0.0000000000
     18796       151  PMPE      H14Y          -21.7145572829      -25.3545651219       -4.1056008784  MEMB      151             0.0000000000
     18797       151  PMPE      C315          -23.3200068200      -25.6459444773       -2.5957930465  MEMB      151             0.0000000000
     18798       151  PMPE      H15X          -24.2790420354      -25.2017706400       -2.2533273493  MEMB      151             0.0000000000
     18799       151  PMPE      H15Y          -22.6035653052      -25.6532545809       -1.7466868137  MEMB      151             0.0000000000
     18800       151  PMPE      C316          -23.7829371856      -27.0864567594       -2.9300262839  MEMB      151             0.0000000000
     18801       151  PMPE      H16X          -22.9483408283      -27.7199029995       -3.2995069156  MEMB      151             0.0000000000
     18802       151  PMPE      H16Y          -24.5467031762      -27.0504462468       -3.7360560817  MEMB      151             0.0000000000
     18803       151  PMPE      H16Z          -24.1840219959      -27.6045818520       -2.0328086351  MEMB      151             0.0000000000
     18804       152  QMPE      N              13.3769154742      -28.2295729198      -21.8393228320  MEMB      152             0.0000000000
     18805       152  QMPE      HN1            13.4545098619      -27.6539939374      -22.7020439911  MEMB      152             0.0000000000
     18806       152  QMPE      HN2            12.9543781352      -29.1420617837      -22.1047022394  MEMB      152             0.0000000000
     18807       152  QMPE      HN3            12.6369526224      -27.6888392908      -21.3477314843  MEMB      152             0.0000000000
     18808       152  QMPE      C12            14.6571280800      -28.0702948749      -21.1060220809  MEMB      152             0.0000000000
     18809       152  QMPE      H12A           15.4066254571      -27.4316784947      -21.6205547767  MEMB      152             0.0000000000
     18810       152  QMPE      H12B           15.1539073698      -29.0436875644      -20.9059271758  MEMB      152             0.0000000000
     18811       152  QMPE      C11            14.2611412000      -27.4334006063      -19.7338656078  MEMB      152             0.0000000000
     18812       152  QMPE      H11A           14.0396870832      -26.3633482446      -19.9345323754  MEMB      152             0.0000000000
     18813       152  QMPE      H11B           15.1475181772      -27.5030959120      -19.0676827534  MEMB      152             0.0000000000
     18814       152  QMPE      P              13.0712521442      -28.8628849051      -17.8836495977  MEMB      152             0.0000000000
     18815       152  QMPE      O13            13.9120219257      -30.0669623662      -18.0378879835  MEMB      152             0.0000000000
     18816       152  QMPE      O14            11.7066937347      -29.1024309405      -17.3659468533  MEMB      152             0.0000000000
     18817       152  QMPE      O11            13.6774864561      -27.8052841776      -16.8224784944  MEMB      152             0.0000000000
     18818       152  QMPE      O12            13.0252642095      -28.0087179866      -19.2108265182  MEMB      152             0.0000000000
     18819       152  QMPE      C1             13.0192586610      -26.5323453282      -16.6746505567  MEMB      152             0.0000000000
     18820       152  QMPE      HA             11.9897259407      -26.6244766050      -17.0819530680  MEMB      152             0.0000000000
     18821       152  QMPE      HB             13.5085023066      -25.6692246906      -17.1746352772  MEMB      152             0.0000000000
     18822       152  QMPE      C2             12.9171988464      -26.1364631383      -15.1861110439  MEMB      152             0.0000000000
     18823       152  QMPE      HS             12.4784474604      -25.1162049730      -15.2159643019  MEMB      152             0.0000000000
     18824       152  QMPE      O21            14.2165372887      -26.0510971081      -14.4964568840  MEMB      152             0.0000000000
     18825       152  QMPE      C21            14.7362786758      -24.9135594038      -14.0603008824  MEMB      152             0.0000000000
     18826       152  QMPE      O22            14.1909557816      -23.8469983001      -14.0901809129  MEMB      152             0.0000000000
     18827       152  QMPE      C22            16.1016397377      -25.2773001920      -13.4684215522  MEMB      152             0.0000000000
     18828       152  QMPE      H2R            16.8804379350      -25.1907073325      -14.2560102822  MEMB      152             0.0000000000
     18829       152  QMPE      H2S            16.0820395968      -26.3383520408      -13.1396274942  MEMB      152             0.0000000000
     18830       152  QMPE      C3             12.0769746182      -27.1568171668      -14.3682945173  MEMB      152             0.0000000000
     18831       152  QMPE      HX             12.3378834019      -28.1492467142      -14.7941247496  MEMB      152             0.0000000000
     18832       152  QMPE      HY             10.9804945548      -26.9778016906      -14.3659075293  MEMB      152             0.0000000000
     18833       152  QMPE      O31            12.5479929624      -27.0523965621      -12.9766090807  MEMB      152             0.0000000000
     18834       152  QMPE      C31            12.1278733664      -28.0806606029      -12.2405858450  MEMB      152             0.0000000000
     18835       152  QMPE      O32            11.3639083339      -28.9908742037      -12.5522101112  MEMB      152             0.0000000000
     18836       152  QMPE      C32            12.9096491485      -27.9569660186      -10.9713815287  MEMB      152             0.0000000000
     18837       152  QMPE      H2X            12.7672883180      -28.9467673222      -10.4872865045  MEMB      152             0.0000000000
     18838       152  QMPE      H2Y            13.9572636319      -27.7901412880      -11.3015244739  MEMB      152             0.0000000000
     18839       152  QMPE      C23            16.3828550758      -24.3711649149      -12.2294592291  MEMB      152             0.0000000000
     18840       152  QMPE      H3R            15.4434274031      -24.5748684496      -11.6724125043  MEMB      152             0.0000000000
     18841       152  QMPE      H3S            16.5947463464      -23.3447388533      -12.5980689784  MEMB      152             0.0000000000
     18842       152  QMPE      C24            17.4342849806      -24.9670727981      -11.3565297320  MEMB      152             0.0000000000
     18843       152  QMPE      H4R            18.2504332787      -25.4628847070      -11.9243271340  MEMB      152             0.0000000000
     18844       152  QMPE      H4S            16.9637395062      -25.7654115966      -10.7436978757  MEMB      152             0.0000000000
     18845       152  QMPE      C25            17.9994077137      -23.9397701554      -10.2971782661  MEMB      152             0.0000000000
     18846       152  QMPE      H5R            17.2653141165      -23.4005455914       -9.6610458009  MEMB      152             0.0000000000
     18847       152  QMPE      H5S            18.6278644280      -23.1724017925      -10.7976875393  MEMB      152             0.0000000000
     18848       152  QMPE      C26            18.9127702848      -24.6704501599       -9.3455416738  MEMB      152             0.0000000000
     18849       152  QMPE      H6R            19.7027680278      -23.9346606275       -9.0831701535  MEMB      152             0.0000000000
     18850       152  QMPE      H6S            19.5152273260      -25.4482878459       -9.8616186309  MEMB      152             0.0000000000
     18851       152  QMPE      C27            18.1120895486      -25.3149412868       -8.1672619553  MEMB      152             0.0000000000
     18852       152  QMPE      H7R            18.7846815763      -26.0903188208       -7.7421377434  MEMB      152             0.0000000000
     18853       152  QMPE      H7S            17.2746441024      -25.8873354863       -8.6204401919  MEMB      152             0.0000000000
     18854       152  QMPE      C28            17.5089603011      -24.4704498397       -6.9962780952  MEMB      152             0.0000000000
     18855       152  QMPE      H8R            16.6540180188      -24.9436319328       -6.4676068432  MEMB      152             0.0000000000
     18856       152  QMPE      H8S            17.2384685446      -23.5087520274       -7.4823781627  MEMB      152             0.0000000000
     18857       152  QMPE      C29            18.6872771650      -24.2954303746       -6.0407621342  MEMB      152             0.0000000000
     18858       152  QMPE      H9R            19.5993063470      -24.1100675662       -6.6475277821  MEMB      152             0.0000000000
     18859       152  QMPE      C217           18.8781965456      -25.3284338167       -4.9568218605  MEMB      152             0.0000000000
     18860       152  QMPE      H17R           18.0765326328      -26.0562220193       -4.9333997659  MEMB      152             0.0000000000
     18861       152  QMPE      H17S           19.9162036591      -25.4162416916       -4.6606459748  MEMB      152             0.0000000000
     18862       152  QMPE      C210           18.3102693968      -23.9275132943       -4.5690792262  MEMB      152             0.0000000000
     18863       152  QMPE      H10R           19.0108111139      -23.1730134436       -4.1515958847  MEMB      152             0.0000000000
     18864       152  QMPE      C211           16.8337105583      -23.7052273649       -4.1944786750  MEMB      152             0.0000000000
     18865       152  QMPE      H11R           16.3084719579      -23.4537911247       -5.1406422098  MEMB      152             0.0000000000
     18866       152  QMPE      H11S           16.3686260726      -24.6415291502       -3.8185053264  MEMB      152             0.0000000000
     18867       152  QMPE      C212           16.7683112349      -22.6226494532       -3.0864358138  MEMB      152             0.0000000000
     18868       152  QMPE      H12R           17.1459238513      -21.7542601553       -3.6674948387  MEMB      152             0.0000000000
     18869       152  QMPE      H12S           17.3655559219      -22.8968727220       -2.1906562971  MEMB      152             0.0000000000
     18870       152  QMPE      C213           15.3639183081      -22.3353014641       -2.5672327091  MEMB      152             0.0000000000
     18871       152  QMPE      H13R           14.8048094964      -21.7945694394       -3.3605340985  MEMB      152             0.0000000000
     18872       152  QMPE      H13S           15.5714316795      -21.5589818037       -1.8000381054  MEMB      152             0.0000000000
     18873       152  QMPE      C214           14.5666822697      -23.5693356048       -2.1619858656  MEMB      152             0.0000000000
     18874       152  QMPE      H14R           15.0549867167      -24.1840821024       -1.3758777470  MEMB      152             0.0000000000
     18875       152  QMPE      H14S           14.5268778883      -24.3229794096       -2.9773116082  MEMB      152             0.0000000000
     18876       152  QMPE      C215           13.1472185629      -23.2190210529       -1.7424634699  MEMB      152             0.0000000000
     18877       152  QMPE      H15R           12.4619968834      -24.0359407321       -2.0546070898  MEMB      152             0.0000000000
     18878       152  QMPE      H15S           12.7844150237      -22.3907787119       -2.3879925044  MEMB      152             0.0000000000
     18879       152  QMPE      C216           12.9998374859      -22.7639121952       -0.3385324966  MEMB      152             0.0000000000
     18880       152  QMPE      H16R           11.9561567725      -22.4273393627       -0.1602893596  MEMB      152             0.0000000000
     18881       152  QMPE      H16S           13.6035241936      -21.8517120395       -0.1441795690  MEMB      152             0.0000000000
     18882       152  QMPE      H16T           13.1785004239      -23.5741981673        0.4002744329  MEMB      152             0.0000000000
     18883       152  QMPE      C33            12.3577652742      -26.7215436431      -10.2151804502  MEMB      152             0.0000000000
     18884       152  QMPE      H3X            11.2631673984      -26.8496318996      -10.0745745888  MEMB      152             0.0000000000
     18885       152  QMPE      H3Y            12.5070000540      -25.8099940557      -10.8325359844  MEMB      152             0.0000000000
     18886       152  QMPE      C34            13.0035842147      -26.4558080656       -8.8854178795  MEMB      152             0.0000000000
     18887       152  QMPE      H4X            14.0542809449      -26.1444981452       -9.0682937399  MEMB      152             0.0000000000
     18888       152  QMPE      H4Y            13.0372823936      -27.4415065373       -8.3739647963  MEMB      152             0.0000000000
     18889       152  QMPE      C35            12.2523093686      -25.4258782190       -7.9646755431  MEMB      152             0.0000000000
     18890       152  QMPE      H5X            11.1627507248      -25.6416763431       -7.9894579845  MEMB      152             0.0000000000
     18891       152  QMPE      H5Y            12.4624203713      -24.4285529164       -8.4068478520  MEMB      152             0.0000000000
     18892       152  QMPE      C36            12.7476113642      -25.5337810849       -6.5672702638  MEMB      152             0.0000000000
     18893       152  QMPE      H6X            12.2795475430      -24.6789813446       -6.0338339800  MEMB      152             0.0000000000
     18894       152  QMPE      H6Y            13.8479676238      -25.3860337614       -6.6085928475  MEMB      152             0.0000000000
     18895       152  QMPE      C37            12.3309645416      -26.8308787732       -5.7225569992  MEMB      152             0.0000000000
     18896       152  QMPE      H7X            11.2559937139      -27.0485277758       -5.8997237387  MEMB      152             0.0000000000
     18897       152  QMPE      H7Y            12.6966239283      -27.8193833416       -6.0739444336  MEMB      152             0.0000000000
     18898       152  QMPE      C38            12.6890158782      -26.6811210157       -4.2905064799  MEMB      152             0.0000000000
     18899       152  QMPE      H8X            12.4819263440      -25.6404140037       -3.9613200181  MEMB      152             0.0000000000
     18900       152  QMPE      H8Y            12.1007509627      -27.3507920391       -3.6273278105  MEMB      152             0.0000000000
     18901       152  QMPE      C39            14.1178332352      -26.9316166341       -4.0361583396  MEMB      152             0.0000000000
     18902       152  QMPE      H9X            14.2456263011      -26.6491263241       -2.9692984590  MEMB      152             0.0000000000
     18903       152  QMPE      H9Y            14.7830864805      -26.3051362809       -4.6680455378  MEMB      152             0.0000000000
     18904       152  QMPE      C310           14.8197483241      -28.2754925125       -4.2715522997  MEMB      152             0.0000000000
     18905       152  QMPE      H10X           15.0611386156      -28.3569315631       -5.3529501313  MEMB      152             0.0000000000
     18906       152  QMPE      H10Y           14.0229907168      -29.0305101760       -4.0999519627  MEMB      152             0.0000000000
     18907       152  QMPE      C311           16.1019624834      -28.4616682029       -3.3792554188  MEMB      152             0.0000000000
     18908       152  QMPE      H11X           16.1024341622      -28.0281560988       -2.3563240912  MEMB      152             0.0000000000
     18909       152  QMPE      H11Y           16.8654862387      -27.9028505093       -3.9615570317  MEMB      152             0.0000000000
     18910       152  QMPE      C312           16.6984292440      -29.9336166344       -3.2381788534  MEMB      152             0.0000000000
     18911       152  QMPE      H12X           16.8193441975      -30.2854607833       -4.2850346531  MEMB      152             0.0000000000
     18912       152  QMPE      H12Y           15.9352370108      -30.6397738388       -2.8467705090  MEMB      152             0.0000000000
     18913       152  QMPE      C313           17.9167111428      -30.1579046249       -2.4637558376  MEMB      152             0.0000000000
     18914       152  QMPE      H13X           17.8427274991      -29.6131729886       -1.4982952800  MEMB      152             0.0000000000
     18915       152  QMPE      H13Y           18.0509131739      -31.2595283132       -2.4114482403  MEMB      152             0.0000000000
     18916       152  QMPE      C314           19.1727435025      -29.5939882844       -3.0774910472  MEMB      152             0.0000000000
     18917       152  QMPE      H14X           19.1672465536      -28.4831032181       -3.0924992943  MEMB      152             0.0000000000
     18918       152  QMPE      H14Y           19.2903909806      -30.0960992055       -4.0615470040  MEMB      152             0.0000000000
     18919       152  QMPE      C315           20.3833111303      -29.9371303273       -2.1790346704  MEMB      152             0.0000000000
     18920       152  QMPE      H15X           21.2921378508      -29.4441833035       -2.5856773834  MEMB      152             0.0000000000
     18921       152  QMPE      H15Y           20.2244855200      -29.6934301077       -1.1067913394  MEMB      152             0.0000000000
     18922       152  QMPE      H15Z           20.5397062763      -31.0370154599       -2.1897355118  MEMB      152             0.0000000000
     18923       153  PMPE      N             -18.2519669125      -27.0522693557      -21.8177916045  MEMB      153             0.0000000000
     18924       153  PMPE      HN1           -17.9072273054      -26.2339748659      -22.3592237003  MEMB      153             0.0000000000
     18925       153  PMPE      HN2           -18.7976444110      -27.6192859468      -22.4977386618  MEMB      153             0.0000000000
     18926       153  PMPE      HN3           -18.8206247411      -26.8613875433      -20.9682077758  MEMB      153             0.0000000000
     18927       153  PMPE      C12           -16.9514561795      -27.8191557479      -21.4843856206  MEMB      153             0.0000000000
     18928       153  PMPE      H12A          -16.4392016918      -27.7241259348      -22.4656529817  MEMB      153             0.0000000000
     18929       153  PMPE      H12B          -17.2616611405      -28.8822756147      -21.3956730068  MEMB      153             0.0000000000
     18930       153  PMPE      C11           -16.2703962960      -27.2520683968      -20.2655179647  MEMB      153             0.0000000000
     18931       153  PMPE      H11A          -15.9895678145      -26.1860316424      -20.4034382007  MEMB      153             0.0000000000
     18932       153  PMPE      H11B          -15.4002602041      -27.9199853268      -20.0892478782  MEMB      153             0.0000000000
     18933       153  PMPE      P             -16.8148356929      -26.9329230815      -17.6746225587  MEMB      153             0.0000000000
     18934       153  PMPE      O13           -17.7832782393      -26.0477335024      -17.0767619117  MEMB      153             0.0000000000
     18935       153  PMPE      O14           -15.3791764308      -26.6058970043      -17.6656895479  MEMB      153             0.0000000000
     18936       153  PMPE      O11           -16.7744888071      -28.2566749535      -16.8577152999  MEMB      153             0.0000000000
     18937       153  PMPE      O12           -17.2051942126      -27.2749334246      -19.1575154952  MEMB      153             0.0000000000
     18938       153  PMPE      C1            -16.9075403893      -29.5424511119      -17.4580609794  MEMB      153             0.0000000000
     18939       153  PMPE      HA            -16.3575478868      -29.6085471290      -18.4211085618  MEMB      153             0.0000000000
     18940       153  PMPE      HB            -18.0134963394      -29.6477676214      -17.4675876641  MEMB      153             0.0000000000
     18941       153  PMPE      C2            -16.2421569185      -30.6725305107      -16.5294758217  MEMB      153             0.0000000000
     18942       153  PMPE      HS            -16.4270155182      -31.6335516499      -17.0553909930  MEMB      153             0.0000000000
     18943       153  PMPE      O21           -16.8013076461      -30.7680151360      -15.2552420929  MEMB      153             0.0000000000
     18944       153  PMPE      C21           -18.1049525462      -31.1223129635      -15.0757969258  MEMB      153             0.0000000000
     18945       153  PMPE      O22           -18.8861319732      -31.5396328198      -15.8971141436  MEMB      153             0.0000000000
     18946       153  PMPE      C22           -18.4893409579      -30.8159854866      -13.5884522281  MEMB      153             0.0000000000
     18947       153  PMPE      H2R           -19.5669834359      -30.9446786380      -13.3508692090  MEMB      153             0.0000000000
     18948       153  PMPE      H2S           -18.4295111972      -29.7067036533      -13.5731214268  MEMB      153             0.0000000000
     18949       153  PMPE      C3            -14.6532275937      -30.5539363805      -16.3429683447  MEMB      153             0.0000000000
     18950       153  PMPE      HX            -14.0557493974      -30.4825834158      -17.2769115559  MEMB      153             0.0000000000
     18951       153  PMPE      HY            -14.3312988124      -31.4582220621      -15.7835487442  MEMB      153             0.0000000000
     18952       153  PMPE      O31           -14.4667643122      -29.3202857079      -15.5814310263  MEMB      153             0.0000000000
     18953       153  PMPE      C31           -14.4462087545      -29.4227499932      -14.2354611801  MEMB      153             0.0000000000
     18954       153  PMPE      O32           -14.4421379469      -30.4368494013      -13.5822020430  MEMB      153             0.0000000000
     18955       153  PMPE      C32           -14.5026991338      -27.9821933210      -13.6659224396  MEMB      153             0.0000000000
     18956       153  PMPE      H2X           -15.5679661773      -27.7868968731      -13.4181599724  MEMB      153             0.0000000000
     18957       153  PMPE      H2Y           -14.2960176072      -27.1914867012      -14.4185093303  MEMB      153             0.0000000000
     18958       153  PMPE      C23           -17.6550433343      -31.5314538502      -12.5631343120  MEMB      153             0.0000000000
     18959       153  PMPE      H3R           -16.5921949956      -31.5670174029      -12.8847081464  MEMB      153             0.0000000000
     18960       153  PMPE      H3S           -17.8744472308      -32.6099266145      -12.4112146537  MEMB      153             0.0000000000
     18961       153  PMPE      C24           -17.8013716826      -30.7172868617      -11.2241510084  MEMB      153             0.0000000000
     18962       153  PMPE      H4R           -18.8086354792      -30.8848219465      -10.7863456647  MEMB      153             0.0000000000
     18963       153  PMPE      H4S           -17.7797472425      -29.6497092155      -11.5309581827  MEMB      153             0.0000000000
     18964       153  PMPE      C25           -16.6484156395      -30.8595697019      -10.2410611981  MEMB      153             0.0000000000
     18965       153  PMPE      H5R           -16.7757828572      -29.9844473511       -9.5685588990  MEMB      153             0.0000000000
     18966       153  PMPE      H5S           -15.6761850064      -30.8637320098      -10.7787141883  MEMB      153             0.0000000000
     18967       153  PMPE      C26           -16.6933105938      -32.2041024090       -9.4601808002  MEMB      153             0.0000000000
     18968       153  PMPE      H6R           -16.7362183165      -33.0824077094      -10.1391945885  MEMB      153             0.0000000000
     18969       153  PMPE      H6S           -17.6792722702      -32.2626583696       -8.9514846393  MEMB      153             0.0000000000
     18970       153  PMPE      C27           -15.6220981884      -32.5081275684       -8.2941933723  MEMB      153             0.0000000000
     18971       153  PMPE      H7R           -14.5571096299      -32.5170653815       -8.6104854219  MEMB      153             0.0000000000
     18972       153  PMPE      H7S           -15.7457086252      -33.5892724982       -8.0702131924  MEMB      153             0.0000000000
     18973       153  PMPE      C28           -15.8017180335      -31.7442781183       -6.9461852380  MEMB      153             0.0000000000
     18974       153  PMPE      H8R           -15.3083218690      -32.3046789483       -6.1234866628  MEMB      153             0.0000000000
     18975       153  PMPE      H8S           -16.8996157877      -31.6997593535       -6.7819927400  MEMB      153             0.0000000000
     18976       153  PMPE      C29           -15.3050014045      -30.3356011827       -7.0246328275  MEMB      153             0.0000000000
     18977       153  PMPE      H9R           -15.7406951698      -29.6086150722       -7.7429523549  MEMB      153             0.0000000000
     18978       153  PMPE      C217          -13.8344140944      -30.2139680843       -6.8983949888  MEMB      153             0.0000000000
     18979       153  PMPE      H17R          -13.2921166367      -29.3464625714       -7.2536932771  MEMB      153             0.0000000000
     18980       153  PMPE      H17S          -13.3515356990      -31.1599557176       -6.6866767295  MEMB      153             0.0000000000
     18981       153  PMPE      C210          -14.7748524258      -29.7537087831       -5.7585462695  MEMB      153             0.0000000000
     18982       153  PMPE      H10R          -14.8718471787      -28.6496395800       -5.6814468746  MEMB      153             0.0000000000
     18983       153  PMPE      C211          -14.6720144998      -30.5145982232       -4.4738098089  MEMB      153             0.0000000000
     18984       153  PMPE      H11R          -13.9488357482      -29.9661682553       -3.8330619722  MEMB      153             0.0000000000
     18985       153  PMPE      H11S          -14.0907452844      -31.4509384595       -4.6142151507  MEMB      153             0.0000000000
     18986       153  PMPE      C212          -16.0123189554      -30.7890564024       -3.7636647349  MEMB      153             0.0000000000
     18987       153  PMPE      H12R          -16.6646743358      -31.5030135487       -4.3104906211  MEMB      153             0.0000000000
     18988       153  PMPE      H12S          -16.6068471851      -29.8677872604       -3.5844433347  MEMB      153             0.0000000000
     18989       153  PMPE      C213          -15.7226171441      -31.5041921823       -2.4255654716  MEMB      153             0.0000000000
     18990       153  PMPE      H13R          -15.0442657591      -30.7642747876       -1.9494533472  MEMB      153             0.0000000000
     18991       153  PMPE      H13S          -15.2820577711      -32.5171357360       -2.5446206561  MEMB      153             0.0000000000
     18992       153  PMPE      C214          -16.8928801729      -31.8677155966       -1.4993265267  MEMB      153             0.0000000000
     18993       153  PMPE      H14R          -17.6603679545      -32.4425128012       -2.0604787211  MEMB      153             0.0000000000
     18994       153  PMPE      H14S          -17.4266626389      -30.9620914784       -1.1398239717  MEMB      153             0.0000000000
     18995       153  PMPE      C215          -16.3614618339      -32.5971859867       -0.2349760400  MEMB      153             0.0000000000
     18996       153  PMPE      H15R          -15.5119023209      -33.2783083677       -0.4555252476  MEMB      153             0.0000000000
     18997       153  PMPE      H15S          -17.2472114076      -33.0933668965        0.2162161420  MEMB      153             0.0000000000
     18998       153  PMPE      C216          -16.0025149155      -31.5759826616        0.9460662712  MEMB      153             0.0000000000
     18999       153  PMPE      H16R          -15.1525507597      -30.9114256879        0.6810268363  MEMB      153             0.0000000000
     19000       153  PMPE      H16S          -16.9352289665      -31.0372939446        1.2184269019  MEMB      153             0.0000000000
     19001       153  PMPE      H16T          -15.8157778461      -32.2175884701        1.8336431193  MEMB      153             0.0000000000
     19002       153  PMPE      C33           -13.6944283756      -27.8486651345      -12.4465202965  MEMB      153             0.0000000000
     19003       153  PMPE      H3X           -12.5948571329      -27.7877191163      -12.5933205983  MEMB      153             0.0000000000
     19004       153  PMPE      H3Y           -13.9075911727      -28.6246065020      -11.6804934126  MEMB      153             0.0000000000
     19005       153  PMPE      C34           -13.8121869535      -26.5147627370      -11.7577988282  MEMB      153             0.0000000000
     19006       153  PMPE      H4X           -13.6099173834      -25.6684101894      -12.4485197027  MEMB      153             0.0000000000
     19007       153  PMPE      H4Y           -13.0613208390      -26.3702666411      -10.9517948051  MEMB      153             0.0000000000
     19008       153  PMPE      C35           -15.1482752582      -26.2083700637      -11.0917393532  MEMB      153             0.0000000000
     19009       153  PMPE      H5X           -15.9599667357      -26.2950653163      -11.8453717024  MEMB      153             0.0000000000
     19010       153  PMPE      H5Y           -14.9674907952      -25.1709702295      -10.7375648457  MEMB      153             0.0000000000
     19011       153  PMPE      C36           -15.4898511298      -26.9367653693       -9.7676207262  MEMB      153             0.0000000000
     19012       153  PMPE      H6X           -14.6141519690      -26.9384954440       -9.0839038105  MEMB      153             0.0000000000
     19013       153  PMPE      H6Y           -15.6710274343      -28.0078419800      -10.0006244429  MEMB      153             0.0000000000
     19014       153  PMPE      C37           -16.5275429606      -26.0986651191       -9.1523515770  MEMB      153             0.0000000000
     19015       153  PMPE      H7X           -17.4223414786      -26.1376090954       -9.8097256968  MEMB      153             0.0000000000
     19016       153  PMPE      H7Y           -16.2817383162      -25.0274952532       -8.9895764965  MEMB      153             0.0000000000
     19017       153  PMPE      C38           -16.9355274018      -26.6844163726       -7.7430864041  MEMB      153             0.0000000000
     19018       153  PMPE      H8X           -16.2048958500      -26.2741069198       -7.0136042183  MEMB      153             0.0000000000
     19019       153  PMPE      H8Y           -16.7840224054      -27.7830674874       -7.8089090150  MEMB      153             0.0000000000
     19020       153  PMPE      C39           -18.3847676760      -26.3443184361       -7.3575122341  MEMB      153             0.0000000000
     19021       153  PMPE      H9X           -18.5085688381      -25.2592967204       -7.5617742415  MEMB      153             0.0000000000
     19022       153  PMPE      H9Y           -18.5249611582      -26.6704112766       -6.3047401953  MEMB      153             0.0000000000
     19023       153  PMPE      C310          -19.5194207057      -27.0033102687       -8.2455483785  MEMB      153             0.0000000000
     19024       153  PMPE      H10X          -19.2797710676      -26.4503828936       -9.1789079673  MEMB      153             0.0000000000
     19025       153  PMPE      H10Y          -20.5256002446      -26.6795991767       -7.9032991948  MEMB      153             0.0000000000
     19026       153  PMPE      C311          -19.3382458115      -28.5305981488       -8.3412985000  MEMB      153             0.0000000000
     19027       153  PMPE      H11X          -18.6257920933      -28.7917344250       -9.1528025727  MEMB      153             0.0000000000
     19028       153  PMPE      H11Y          -20.3183096976      -28.8177347041       -8.7787327319  MEMB      153             0.0000000000
     19029       153  PMPE      C312          -19.2516109780      -29.3228402034       -7.0082744491  MEMB      153             0.0000000000
     19030       153  PMPE      H12X          -18.4352551165      -28.7993075309       -6.4662435569  MEMB      153             0.0000000000
     19031       153  PMPE      H12Y          -18.8854162734      -30.3458691489       -7.2398648412  MEMB      153             0.0000000000
     19032       153  PMPE      C313          -20.6099027133      -29.2545170841       -6.3430068765  MEMB      153             0.0000000000
     19033       153  PMPE      H13X          -21.3792474929      -29.7849640829       -6.9438855173  MEMB      153             0.0000000000
     19034       153  PMPE      H13Y          -20.9457639038      -28.2014584586       -6.2308208418  MEMB      153             0.0000000000
     19035       153  PMPE      C314          -20.4463406985      -30.0388839997       -4.9997379999  MEMB      153             0.0000000000
     19036       153  PMPE      H14X          -19.9220718707      -31.0146257490       -5.0857093389  MEMB      153             0.0000000000
     19037       153  PMPE      H14Y          -21.4687019758      -30.2548099815       -4.6222795160  MEMB      153             0.0000000000
     19038       153  PMPE      C315          -19.7029270240      -29.1628306442       -3.9311551138  MEMB      153             0.0000000000
     19039       153  PMPE      H15X          -19.9917102839      -28.0907609560       -3.8912518587  MEMB      153             0.0000000000
     19040       153  PMPE      H15Y          -18.6268880296      -29.3499118915       -4.1347772704  MEMB      153             0.0000000000
     19041       153  PMPE      C316          -19.8499214318      -29.8362678947       -2.5802874820  MEMB      153             0.0000000000
     19042       153  PMPE      H16X          -20.9398463838      -29.8509261131       -2.3654163535  MEMB      153             0.0000000000
     19043       153  PMPE      H16Y          -19.2006645757      -29.3462558100       -1.8235343916  MEMB      153             0.0000000000
     19044       153  PMPE      H16Z          -19.5814125546      -30.8999868729       -2.4050006842  MEMB      153             0.0000000000
     19045       154  PMPE      N              -5.7031360170      -30.3593125392      -20.2161286575  MEMB      154             0.0000000000
     19046       154  PMPE      HN1            -5.8062611140      -30.2534471893      -19.1866833382  MEMB      154             0.0000000000
     19047       154  PMPE      HN2            -5.4873570411      -29.4484633492      -20.6693319811  MEMB      154             0.0000000000
     19048       154  PMPE      HN3            -6.5913952767      -30.7003710213      -20.6359794520  MEMB      154             0.0000000000
     19049       154  PMPE      C12            -4.5308753240      -31.2967188854      -20.7006304161  MEMB      154             0.0000000000
     19050       154  PMPE      H12A           -4.5780873694      -31.2529117633      -21.8097620582  MEMB      154             0.0000000000
     19051       154  PMPE      H12B           -4.7217055750      -32.3309256433      -20.3424107307  MEMB      154             0.0000000000
     19052       154  PMPE      C11            -3.1780655186      -30.8040467194      -20.2484678020  MEMB      154             0.0000000000
     19053       154  PMPE      H11A           -3.0694436325      -29.7200687914      -20.4664452507  MEMB      154             0.0000000000
     19054       154  PMPE      H11B           -2.3671548958      -31.3424443313      -20.7840729938  MEMB      154             0.0000000000
     19055       154  PMPE      P              -2.5429687855      -32.1647716422      -18.2049196737  MEMB      154             0.0000000000
     19056       154  PMPE      O13            -1.0866521901      -32.2619902573      -18.3759990030  MEMB      154             0.0000000000
     19057       154  PMPE      O14            -3.2845030482      -33.3946194648      -18.6169952343  MEMB      154             0.0000000000
     19058       154  PMPE      O11            -2.8678239168      -31.9004703463      -16.7658836144  MEMB      154             0.0000000000
     19059       154  PMPE      O12            -3.1112322154      -30.9527997387      -18.8709755968  MEMB      154             0.0000000000
     19060       154  PMPE      C1             -2.8453467989      -30.6042304756      -16.1568999949  MEMB      154             0.0000000000
     19061       154  PMPE      HA             -3.3966827897      -30.7125496112      -15.1984550608  MEMB      154             0.0000000000
     19062       154  PMPE      HB             -3.2584310297      -29.9400403606      -16.9459080727  MEMB      154             0.0000000000
     19063       154  PMPE      C2             -1.4046968060      -30.0830802178      -15.8342695449  MEMB      154             0.0000000000
     19064       154  PMPE      HS             -1.0708068298      -29.7643934759      -16.8448522100  MEMB      154             0.0000000000
     19065       154  PMPE      O21            -0.6573817691      -31.1292058028      -15.1569915193  MEMB      154             0.0000000000
     19066       154  PMPE      C21             0.6488253933      -31.0881550107      -15.2869303786  MEMB      154             0.0000000000
     19067       154  PMPE      O22             1.3999292398      -30.3575499388      -15.8922529963  MEMB      154             0.0000000000
     19068       154  PMPE      C22             1.1312046985      -32.2196266406      -14.4154011356  MEMB      154             0.0000000000
     19069       154  PMPE      H2R             2.1440388163      -32.0228219182      -14.0033858140  MEMB      154             0.0000000000
     19070       154  PMPE      H2S             1.2112659049      -33.1705105667      -14.9843746014  MEMB      154             0.0000000000
     19071       154  PMPE      C3             -1.6083589215      -28.7726204028      -14.9581770240  MEMB      154             0.0000000000
     19072       154  PMPE      HX             -2.2801754932      -28.1459639047      -15.5829050856  MEMB      154             0.0000000000
     19073       154  PMPE      HY             -0.6929774128      -28.1431148467      -14.9471886480  MEMB      154             0.0000000000
     19074       154  PMPE      O31            -2.2164600413      -29.1842649815      -13.7191266208  MEMB      154             0.0000000000
     19075       154  PMPE      C31            -2.3866891285      -28.2099814781      -12.7899881603  MEMB      154             0.0000000000
     19076       154  PMPE      O32            -2.3494843901      -27.0265628085      -13.0679269619  MEMB      154             0.0000000000
     19077       154  PMPE      C32            -2.8057350327      -28.7282841901      -11.4860266883  MEMB      154             0.0000000000
     19078       154  PMPE      H2X            -1.9213442702      -28.9835074397      -10.8639052655  MEMB      154             0.0000000000
     19079       154  PMPE      H2Y            -3.3896709276      -29.6449330956      -11.7164500572  MEMB      154             0.0000000000
     19080       154  PMPE      C23             0.2223716352      -32.4314133565      -13.1577477099  MEMB      154             0.0000000000
     19081       154  PMPE      H3R            -0.6118469449      -33.0219593974      -13.5932421929  MEMB      154             0.0000000000
     19082       154  PMPE      H3S            -0.1334573786      -31.4854496444      -12.6963807776  MEMB      154             0.0000000000
     19083       154  PMPE      C24             0.8298859469      -33.2387274908      -12.0518239301  MEMB      154             0.0000000000
     19084       154  PMPE      H4R             1.9004448534      -32.9482389233      -11.9898464393  MEMB      154             0.0000000000
     19085       154  PMPE      H4S             0.8350092487      -34.2697294668      -12.4657439005  MEMB      154             0.0000000000
     19086       154  PMPE      C25             0.2182438820      -33.0279009521      -10.6711078868  MEMB      154             0.0000000000
     19087       154  PMPE      H5R            -0.8826938153      -32.9345363716      -10.7874697158  MEMB      154             0.0000000000
     19088       154  PMPE      H5S             0.4608375751      -32.0217935336      -10.2671061531  MEMB      154             0.0000000000
     19089       154  PMPE      C26             0.5555578058      -34.1123794456       -9.6371105410  MEMB      154             0.0000000000
     19090       154  PMPE      H6R             1.6448988377      -34.0542863261       -9.4266770563  MEMB      154             0.0000000000
     19091       154  PMPE      H6S             0.3230206980      -35.1087769361      -10.0700536106  MEMB      154             0.0000000000
     19092       154  PMPE      C27            -0.3341584452      -34.0419082820       -8.3563212111  MEMB      154             0.0000000000
     19093       154  PMPE      H7R            -0.3352650502      -35.0880526364       -7.9822875786  MEMB      154             0.0000000000
     19094       154  PMPE      H7S            -1.3481882109      -33.6145509886       -8.5093924175  MEMB      154             0.0000000000
     19095       154  PMPE      C28             0.2816337506      -33.1831924941       -7.2248422947  MEMB      154             0.0000000000
     19096       154  PMPE      H8R             1.2775535076      -33.6125656418       -6.9837958798  MEMB      154             0.0000000000
     19097       154  PMPE      H8S            -0.3122884897      -33.2812135229       -6.2910499429  MEMB      154             0.0000000000
     19098       154  PMPE      C29             0.2730890701      -31.6491440541       -7.5982982583  MEMB      154             0.0000000000
     19099       154  PMPE      H9R            -0.4345419347      -31.1954802637       -8.3247750030  MEMB      154             0.0000000000
     19100       154  PMPE      C217            1.6868873761      -31.1206044832       -7.9397090868  MEMB      154             0.0000000000
     19101       154  PMPE      H17R            1.6618433121      -30.4837414435       -8.8153045278  MEMB      154             0.0000000000
     19102       154  PMPE      H17S            2.5628952505      -31.6506629258       -7.5868115173  MEMB      154             0.0000000000
     19103       154  PMPE      C210            0.9632287599      -30.6934807493       -6.6615358023  MEMB      154             0.0000000000
     19104       154  PMPE      H10R            0.6466460633      -29.6296260272       -6.7095919114  MEMB      154             0.0000000000
     19105       154  PMPE      C211            1.5269175767      -31.1879983559       -5.2733572849  MEMB      154             0.0000000000
     19106       154  PMPE      H11R            2.1869946350      -30.3718344947       -4.9093582447  MEMB      154             0.0000000000
     19107       154  PMPE      H11S            2.0878160466      -32.1299855017       -5.4532843154  MEMB      154             0.0000000000
     19108       154  PMPE      C212            0.5083193157      -31.4576845863       -4.2133398171  MEMB      154             0.0000000000
     19109       154  PMPE      H12R            0.0479801056      -32.4359652839       -4.4690255570  MEMB      154             0.0000000000
     19110       154  PMPE      H12S           -0.2322508487      -30.6299438033       -4.2402075097  MEMB      154             0.0000000000
     19111       154  PMPE      C213            1.1693060776      -31.3902079134       -2.8063394740  MEMB      154             0.0000000000
     19112       154  PMPE      H13R            1.2492527745      -30.3423904980       -2.4457723712  MEMB      154             0.0000000000
     19113       154  PMPE      H13S            2.2014384188      -31.7400784571       -3.0222423513  MEMB      154             0.0000000000
     19114       154  PMPE      C214            0.6537085045      -32.4096150764       -1.7914834573  MEMB      154             0.0000000000
     19115       154  PMPE      H14R            1.3906960518      -32.5318205392       -0.9691479989  MEMB      154             0.0000000000
     19116       154  PMPE      H14S            0.6246914682      -33.4276048258       -2.2355284698  MEMB      154             0.0000000000
     19117       154  PMPE      C215           -0.6032284822      -32.1201771105       -1.1239771729  MEMB      154             0.0000000000
     19118       154  PMPE      H15R           -1.4503775417      -31.9460770840       -1.8213647776  MEMB      154             0.0000000000
     19119       154  PMPE      H15S           -0.4280508793      -31.1356115201       -0.6399677044  MEMB      154             0.0000000000
     19120       154  PMPE      C216           -1.0075322116      -33.1202416379       -0.0260887235  MEMB      154             0.0000000000
     19121       154  PMPE      H16R           -1.2244012274      -34.0664133468       -0.5665034585  MEMB      154             0.0000000000
     19122       154  PMPE      H16S           -0.1418797963      -33.1997529607        0.6657522143  MEMB      154             0.0000000000
     19123       154  PMPE      H16T           -1.9390855440      -32.7454558223        0.4493740208  MEMB      154             0.0000000000
     19124       154  PMPE      C33            -3.7597895249      -27.7534595110      -10.7342809599  MEMB      154             0.0000000000
     19125       154  PMPE      H3X            -4.6786185311      -27.7798486588      -11.3582823923  MEMB      154             0.0000000000
     19126       154  PMPE      H3Y            -3.3722324426      -26.7122745077      -10.7269084937  MEMB      154             0.0000000000
     19127       154  PMPE      C34            -4.1304752715      -28.1986796999       -9.2583141045  MEMB      154             0.0000000000
     19128       154  PMPE      H4X            -4.7867248755      -29.0891591757       -9.3617733367  MEMB      154             0.0000000000
     19129       154  PMPE      H4Y            -4.8000238081      -27.3892492985       -8.8965851131  MEMB      154             0.0000000000
     19130       154  PMPE      C35            -2.9509152973      -28.3566556807       -8.2121911812  MEMB      154             0.0000000000
     19131       154  PMPE      H5X            -2.4021369788      -27.3923673075       -8.1546497116  MEMB      154             0.0000000000
     19132       154  PMPE      H5Y            -2.3107647890      -29.2072659652       -8.5299804337  MEMB      154             0.0000000000
     19133       154  PMPE      C36            -3.4210250572      -28.7656196446       -6.8055802280  MEMB      154             0.0000000000
     19134       154  PMPE      H6X            -4.0129172541      -29.6949479842       -6.9481753672  MEMB      154             0.0000000000
     19135       154  PMPE      H6Y            -4.3059745078      -28.1631046150       -6.5086617376  MEMB      154             0.0000000000
     19136       154  PMPE      C37            -2.4131973988      -28.7769903606       -5.6948032714  MEMB      154             0.0000000000
     19137       154  PMPE      H7X            -2.1363385069      -27.7321569126       -5.4379119700  MEMB      154             0.0000000000
     19138       154  PMPE      H7Y            -1.4565073809      -29.3141812168       -5.8694202491  MEMB      154             0.0000000000
     19139       154  PMPE      C38            -3.0417817379      -29.2070032548       -4.3711778136  MEMB      154             0.0000000000
     19140       154  PMPE      H8X            -3.8277733903      -28.5346512069       -3.9656156604  MEMB      154             0.0000000000
     19141       154  PMPE      H8Y            -2.2225093835      -29.0253082726       -3.6430981129  MEMB      154             0.0000000000
     19142       154  PMPE      C39            -3.6820850219      -30.5403262303       -4.2412226381  MEMB      154             0.0000000000
     19143       154  PMPE      H9X            -2.8830654259      -31.2562439476       -4.5299276359  MEMB      154             0.0000000000
     19144       154  PMPE      H9Y            -4.5732968941      -30.6417260263       -4.8967989796  MEMB      154             0.0000000000
     19145       154  PMPE      C310           -4.1371109816      -30.8971973990       -2.8153396839  MEMB      154             0.0000000000
     19146       154  PMPE      H10X           -5.0003338246      -30.2280510669       -2.6118449366  MEMB      154             0.0000000000
     19147       154  PMPE      H10Y           -3.2944134364      -30.5740133311       -2.1674715833  MEMB      154             0.0000000000
     19148       154  PMPE      C311           -4.5101049075      -32.3435123619       -2.6951613286  MEMB      154             0.0000000000
     19149       154  PMPE      H11X           -3.5718345585      -32.9026494177       -2.8984724879  MEMB      154             0.0000000000
     19150       154  PMPE      H11Y           -5.2111481473      -32.6395385126       -3.5046226848  MEMB      154             0.0000000000
     19151       154  PMPE      C312           -5.1556612511      -32.7982876571       -1.4303746135  MEMB      154             0.0000000000
     19152       154  PMPE      H12X           -6.2300220303      -32.5241984661       -1.3600544444  MEMB      154             0.0000000000
     19153       154  PMPE      H12Y           -4.5600694544      -32.3297882341       -0.6179097683  MEMB      154             0.0000000000
     19154       154  PMPE      C313           -5.0721983851      -34.3080110196       -1.2281966930  MEMB      154             0.0000000000
     19155       154  PMPE      H13X           -4.0994810562      -34.5942249186       -0.7740788918  MEMB      154             0.0000000000
     19156       154  PMPE      H13Y           -5.1910698201      -34.7469543872       -2.2418619138  MEMB      154             0.0000000000
     19157       154  PMPE      C314           -6.3273720785      -34.8653742890       -0.4677864702  MEMB      154             0.0000000000
     19158       154  PMPE      H14X           -6.1091876357      -35.9519796755       -0.3902902712  MEMB      154             0.0000000000
     19159       154  PMPE      H14Y           -7.2472815047      -34.6060756663       -1.0342231269  MEMB      154             0.0000000000
     19160       154  PMPE      C315           -6.5143302910      -34.3358716991        1.0023741293  MEMB      154             0.0000000000
     19161       154  PMPE      H15X           -6.7069846841      -33.2444994766        0.9241971361  MEMB      154             0.0000000000
     19162       154  PMPE      H15Y           -5.4650869110      -34.4070642580        1.3606213146  MEMB      154             0.0000000000
     19163       154  PMPE      C316           -7.4312759575      -35.1734365799        1.8376799089  MEMB      154             0.0000000000
     19164       154  PMPE      H16X           -6.9493043208      -36.0472763737        2.3259721405  MEMB      154             0.0000000000
     19165       154  PMPE      H16Y           -8.2733674624      -35.5511963788        1.2192149507  MEMB      154             0.0000000000
     19166       154  PMPE      H16Z           -7.8927237336      -34.6005518848        2.6702602821  MEMB      154             0.0000000000
     19167       155  PYPG      C13           -30.5697839855      -13.7798884862      -20.6448235010  MEMB      155             0.0000000000
     19168       155  PYPG      H13A          -31.2051680422      -14.2707512460      -21.4127179476  MEMB      155             0.0000000000
     19169       155  PYPG      H13B          -31.0373850640      -12.8290477019      -20.3107995794  MEMB      155             0.0000000000
     19170       155  PYPG      OC3           -29.3935992868      -13.4854600652      -21.4025695885  MEMB      155             0.0000000000
     19171       155  PYPG      HO3           -29.3773420324      -14.1951520836      -22.0488457852  MEMB      155             0.0000000000
     19172       155  PYPG      C12           -30.2767274758      -14.8027681438      -19.4320306855  MEMB      155             0.0000000000
     19173       155  PYPG      H12A          -29.8911818372      -15.7473576183      -19.8813460818  MEMB      155             0.0000000000
     19174       155  PYPG      OC2           -31.4890826263      -15.1063923254      -18.7406203620  MEMB      155             0.0000000000
     19175       155  PYPG      HO2           -31.1769045018      -15.6133306770      -17.9594192571  MEMB      155             0.0000000000
     19176       155  PYPG      C11           -29.1741683270      -14.2332977876      -18.4286982105  MEMB      155             0.0000000000
     19177       155  PYPG      H11A          -29.2977455627      -14.7229252357      -17.4390949847  MEMB      155             0.0000000000
     19178       155  PYPG      H11B          -29.3829584439      -13.1583195988      -18.2412151212  MEMB      155             0.0000000000
     19179       155  PYPG      P             -26.7034972628      -15.1278898283      -18.2841209700  MEMB      155             0.0000000000
     19180       155  PYPG      O13           -25.8011747473      -14.0635710456      -17.8056461832  MEMB      155             0.0000000000
     19181       155  PYPG      O14           -26.0236230870      -16.1273227463      -19.1385033018  MEMB      155             0.0000000000
     19182       155  PYPG      O11           -27.3228006470      -15.9062725515      -17.0907439109  MEMB      155             0.0000000000
     19183       155  PYPG      O12           -27.8435145556      -14.3224070294      -19.0322432859  MEMB      155             0.0000000000
     19184       155  PYPG      C1            -26.6238990740      -16.1126391420      -15.8731155524  MEMB      155             0.0000000000
     19185       155  PYPG      HA            -26.3375650314      -15.1525281805      -15.3929895393  MEMB      155             0.0000000000
     19186       155  PYPG      HB            -25.6977563769      -16.6956281433      -16.0646993063  MEMB      155             0.0000000000
     19187       155  PYPG      C2            -27.4295629182      -16.9015631507      -14.8873357556  MEMB      155             0.0000000000
     19188       155  PYPG      HS            -27.6688195388      -17.9459278482      -15.1812394199  MEMB      155             0.0000000000
     19189       155  PYPG      O21           -28.5587744575      -16.1731887095      -14.6040667621  MEMB      155             0.0000000000
     19190       155  PYPG      C21           -29.6753741316      -16.8303404334      -14.3651380846  MEMB      155             0.0000000000
     19191       155  PYPG      O22           -29.9708000927      -17.9930859140      -14.4219429097  MEMB      155             0.0000000000
     19192       155  PYPG      C22           -30.7440759999      -15.7745145241      -14.0795830058  MEMB      155             0.0000000000
     19193       155  PYPG      H2R           -31.3089959221      -15.4792985039      -14.9895468004  MEMB      155             0.0000000000
     19194       155  PYPG      H2S           -30.3246913082      -14.7920354483      -13.7743414957  MEMB      155             0.0000000000
     19195       155  PYPG      C3            -26.6040127963      -17.0301574333      -13.6025244067  MEMB      155             0.0000000000
     19196       155  PYPG      HX            -25.8809783336      -16.1958148760      -13.4783681707  MEMB      155             0.0000000000
     19197       155  PYPG      HY            -26.0467525061      -17.9654107052      -13.8240719686  MEMB      155             0.0000000000
     19198       155  PYPG      O31           -27.3409705686      -17.4325087173      -12.4759488408  MEMB      155             0.0000000000
     19199       155  PYPG      C31           -27.6053698185      -16.4803624433      -11.6177366453  MEMB      155             0.0000000000
     19200       155  PYPG      O32           -27.5945477176      -15.2631926231      -11.8704287312  MEMB      155             0.0000000000
     19201       155  PYPG      C32           -27.9711875233      -17.0616672068      -10.2752113263  MEMB      155             0.0000000000
     19202       155  PYPG      H2X           -28.9592689014      -17.5686064408      -10.3072864448  MEMB      155             0.0000000000
     19203       155  PYPG      H2Y           -27.2303220311      -17.8617352718      -10.0623010692  MEMB      155             0.0000000000
     19204       155  PYPG      C23           -31.6476823556      -16.1540335707      -12.8602046539  MEMB      155             0.0000000000
     19205       155  PYPG      H3R           -30.8558510255      -16.1299132676      -12.0812680560  MEMB      155             0.0000000000
     19206       155  PYPG      H3S           -31.9133648816      -17.2203877529      -13.0233693221  MEMB      155             0.0000000000
     19207       155  PYPG      C24           -32.8195502493      -15.1681508058      -12.6951078246  MEMB      155             0.0000000000
     19208       155  PYPG      H4R           -33.4754922661      -15.5084330288      -11.8654882237  MEMB      155             0.0000000000
     19209       155  PYPG      H4S           -33.3921289451      -15.1807969813      -13.6471135461  MEMB      155             0.0000000000
     19210       155  PYPG      C25           -32.4620477743      -13.7076884202      -12.2840219817  MEMB      155             0.0000000000
     19211       155  PYPG      H5R           -33.3785720801      -13.0896503494      -12.1729677700  MEMB      155             0.0000000000
     19212       155  PYPG      H5S           -31.8563454896      -13.3456057779      -13.1421256508  MEMB      155             0.0000000000
     19213       155  PYPG      C26           -31.9090129854      -13.5928442853      -10.8561344651  MEMB      155             0.0000000000
     19214       155  PYPG      H6R           -31.1675178974      -14.4051330472      -10.6989953630  MEMB      155             0.0000000000
     19215       155  PYPG      H6S           -32.7474055538      -13.8294597552      -10.1666178763  MEMB      155             0.0000000000
     19216       155  PYPG      C27           -31.3615432082      -12.1348899352      -10.5689816774  MEMB      155             0.0000000000
     19217       155  PYPG      H7R           -32.1231502813      -11.4622259635      -11.0182009688  MEMB      155             0.0000000000
     19218       155  PYPG      H7S           -30.4779720628      -12.1559359733      -11.2421676927  MEMB      155             0.0000000000
     19219       155  PYPG      C28           -31.0332325990      -11.6621995644       -9.1297955664  MEMB      155             0.0000000000
     19220       155  PYPG      H8R           -30.5568623367      -10.6805470134       -9.3389626038  MEMB      155             0.0000000000
     19221       155  PYPG      H8S           -30.2191776410      -12.2982733382       -8.7210833675  MEMB      155             0.0000000000
     19222       155  PYPG      C29           -32.2829083250      -11.5910011587       -8.2422156170  MEMB      155             0.0000000000
     19223       155  PYPG      H9R           -32.9407088170      -10.7112312042       -8.2996950899  MEMB      155             0.0000000000
     19224       155  PYPG      C210          -32.7344201757      -12.5467446524       -7.4115718566  MEMB      155             0.0000000000
     19225       155  PYPG      H10R          -33.4499294687      -12.3261126210       -6.6057381885  MEMB      155             0.0000000000
     19226       155  PYPG      C211          -32.1083929176      -13.9480139457       -7.2455794647  MEMB      155             0.0000000000
     19227       155  PYPG      H11R          -31.0872639948      -14.0243828318       -7.6766061286  MEMB      155             0.0000000000
     19228       155  PYPG      H11S          -32.7662749820      -14.6443478108       -7.8082798586  MEMB      155             0.0000000000
     19229       155  PYPG      C212          -32.0235200210      -14.4412845152       -5.8664994501  MEMB      155             0.0000000000
     19230       155  PYPG      H12R          -33.0295825740      -14.1821508708       -5.4727882707  MEMB      155             0.0000000000
     19231       155  PYPG      H12S          -31.2979845590      -13.7850334130       -5.3399503172  MEMB      155             0.0000000000
     19232       155  PYPG      C213          -31.7166647812      -15.9578526444       -5.6309130559  MEMB      155             0.0000000000
     19233       155  PYPG      H13R          -30.6901334600      -16.1800198943       -5.9931239133  MEMB      155             0.0000000000
     19234       155  PYPG      H13S          -32.4857175760      -16.5381053860       -6.1842531935  MEMB      155             0.0000000000
     19235       155  PYPG      C214          -31.7632726492      -16.3677824721       -4.1573412079  MEMB      155             0.0000000000
     19236       155  PYPG      H14R          -32.7172689265      -16.0768148358       -3.6679031212  MEMB      155             0.0000000000
     19237       155  PYPG      H14S          -31.8986216153      -17.4702785189       -4.1797973799  MEMB      155             0.0000000000
     19238       155  PYPG      C215          -30.5774788616      -16.0431119827       -3.2584821709  MEMB      155             0.0000000000
     19239       155  PYPG      H15R          -30.8067211279      -16.4898014420       -2.2674030985  MEMB      155             0.0000000000
     19240       155  PYPG      H15S          -30.4347824970      -14.9427936016       -3.2014020252  MEMB      155             0.0000000000
     19241       155  PYPG      C216          -29.2004848916      -16.6031038668       -3.5801718436  MEMB      155             0.0000000000
     19242       155  PYPG      H16R          -29.2854624596      -17.6595870095       -3.2470904277  MEMB      155             0.0000000000
     19243       155  PYPG      H16S          -28.4052818910      -16.0919312448       -2.9964974106  MEMB      155             0.0000000000
     19244       155  PYPG      H16T          -29.0199705376      -16.6185391202       -4.6763002312  MEMB      155             0.0000000000
     19245       155  PYPG      C33           -28.0450887671      -16.0924825862       -9.0956645044  MEMB      155             0.0000000000
     19246       155  PYPG      H3X           -28.4836870943      -16.6708283331       -8.2545525619  MEMB      155             0.0000000000
     19247       155  PYPG      H3Y           -28.7580206628      -15.2893663440       -9.3803628983  MEMB      155             0.0000000000
     19248       155  PYPG      C34           -26.8305843381      -15.4675368428       -8.4883593003  MEMB      155             0.0000000000
     19249       155  PYPG      H4X           -26.2370524062      -15.1646488743       -9.3773469584  MEMB      155             0.0000000000
     19250       155  PYPG      H4Y           -26.2694237675      -16.0785143805       -7.7493549874  MEMB      155             0.0000000000
     19251       155  PYPG      C35           -27.1026449578      -14.0840939072       -7.8386498233  MEMB      155             0.0000000000
     19252       155  PYPG      H5X           -27.7698350850      -13.5677012523       -8.5615028428  MEMB      155             0.0000000000
     19253       155  PYPG      H5Y           -26.1616459002      -13.5320848792       -7.6285832725  MEMB      155             0.0000000000
     19254       155  PYPG      C36           -27.9326300191      -14.1857025710       -6.5412584107  MEMB      155             0.0000000000
     19255       155  PYPG      H6X           -27.2412855393      -14.7407515601       -5.8717181234  MEMB      155             0.0000000000
     19256       155  PYPG      H6Y           -28.8858309006      -14.7399685089       -6.6773406959  MEMB      155             0.0000000000
     19257       155  PYPG      C37           -28.3968545516      -12.8386536071       -5.9296679902  MEMB      155             0.0000000000
     19258       155  PYPG      H7X           -29.3745010394      -12.6267648772       -6.4130222756  MEMB      155             0.0000000000
     19259       155  PYPG      H7Y           -28.6433671587      -13.0627082331       -4.8697847633  MEMB      155             0.0000000000
     19260       155  PYPG      C38           -27.5666318921      -11.5669909444       -6.1785295714  MEMB      155             0.0000000000
     19261       155  PYPG      H8X           -27.4694322043      -11.3889271160       -7.2708515132  MEMB      155             0.0000000000
     19262       155  PYPG      H8Y           -26.5231054987      -11.6470558333       -5.8057514833  MEMB      155             0.0000000000
     19263       155  PYPG      C39           -28.2155970177      -10.2206345012       -5.7941531940  MEMB      155             0.0000000000
     19264       155  PYPG      H9X           -29.0255364659       -9.9669166968       -6.5110542977  MEMB      155             0.0000000000
     19265       155  PYPG      H9Y           -27.3875157162       -9.4811197474       -5.7526786736  MEMB      155             0.0000000000
     19266       155  PYPG      C310          -28.8635052856      -10.2088403710       -4.4203053912  MEMB      155             0.0000000000
     19267       155  PYPG      H10X          -29.7548517923      -10.8664271631       -4.3342716490  MEMB      155             0.0000000000
     19268       155  PYPG      H10Y          -29.3226926507       -9.2020896217       -4.3207017042  MEMB      155             0.0000000000
     19269       155  PYPG      C311          -27.9556206357      -10.6057296925       -3.2634590848  MEMB      155             0.0000000000
     19270       155  PYPG      H11X          -27.0154038806      -10.0241436638       -3.3733287337  MEMB      155             0.0000000000
     19271       155  PYPG      H11Y          -27.5898232420      -11.6546335341       -3.2811886197  MEMB      155             0.0000000000
     19272       155  PYPG      C312          -28.6292831849      -10.4291227421       -1.8790160422  MEMB      155             0.0000000000
     19273       155  PYPG      H12X          -28.9090395893       -9.3558090919       -1.8153383839  MEMB      155             0.0000000000
     19274       155  PYPG      H12Y          -29.5406493187      -11.0618669398       -1.8209839054  MEMB      155             0.0000000000
     19275       155  PYPG      C313          -27.9040646845      -10.9178616702       -0.6575149365  MEMB      155             0.0000000000
     19276       155  PYPG      H13X          -28.5956902009      -10.7155301930        0.1880842299  MEMB      155             0.0000000000
     19277       155  PYPG      H13Y          -27.8641994805      -12.0279353453       -0.6791544895  MEMB      155             0.0000000000
     19278       155  PYPG      C314          -26.5310309986      -10.3101400565       -0.5226390183  MEMB      155             0.0000000000
     19279       155  PYPG      H14X          -25.8425047487      -10.5469974179       -1.3617776981  MEMB      155             0.0000000000
     19280       155  PYPG      H14Y          -26.7261488174       -9.2229993180       -0.6425338523  MEMB      155             0.0000000000
     19281       155  PYPG      C315          -25.7213528818      -10.6500879842        0.7779943166  MEMB      155             0.0000000000
     19282       155  PYPG      H15X          -24.7140868402      -10.2086194079        0.6203803475  MEMB      155             0.0000000000
     19283       155  PYPG      H15Y          -26.2623551188      -10.1532027601        1.6115053726  MEMB      155             0.0000000000
     19284       155  PYPG      C316          -25.6124646423      -12.1878459636        1.0609244413  MEMB      155             0.0000000000
     19285       155  PYPG      H16X          -26.6499516642      -12.5423005734        1.2406559339  MEMB      155             0.0000000000
     19286       155  PYPG      H16Y          -24.9712888469      -12.4262933448        1.9363424543  MEMB      155             0.0000000000
     19287       155  PYPG      H16Z          -25.0645796150      -12.6910227124        0.2357224513  MEMB      155             0.0000000000
     19288       156  PMPE      N             -22.9620166471       24.0426531460      -22.6035887393  MEMB      156             0.0000000000
     19289       156  PMPE      HN1           -23.7026025369       24.3937796706      -23.2437782010  MEMB      156             0.0000000000
     19290       156  PMPE      HN2           -22.0615376752       24.5178326862      -22.8155840369  MEMB      156             0.0000000000
     19291       156  PMPE      HN3           -22.7580753550       23.0284592545      -22.7104475124  MEMB      156             0.0000000000
     19292       156  PMPE      C12           -23.3590062651       24.2630601756      -21.1468823332  MEMB      156             0.0000000000
     19293       156  PMPE      H12A          -24.3888560632       23.8662122702      -21.0194377617  MEMB      156             0.0000000000
     19294       156  PMPE      H12B          -23.4952859766       25.3536461525      -20.9844904410  MEMB      156             0.0000000000
     19295       156  PMPE      C11           -22.3364024735       23.7297608538      -20.1640473709  MEMB      156             0.0000000000
     19296       156  PMPE      H11A          -21.3558287561       24.2355564300      -20.2943050333  MEMB      156             0.0000000000
     19297       156  PMPE      H11B          -22.1875231566       22.6389577605      -20.3133945595  MEMB      156             0.0000000000
     19298       156  PMPE      P             -22.4809413015       23.0318506119      -17.6298390570  MEMB      156             0.0000000000
     19299       156  PMPE      O13           -21.3733777116       23.7243101832      -16.9656772873  MEMB      156             0.0000000000
     19300       156  PMPE      O14           -22.3878714393       21.6083212821      -18.0059132153  MEMB      156             0.0000000000
     19301       156  PMPE      O11           -23.6410229961       23.0840749422      -16.5702482644  MEMB      156             0.0000000000
     19302       156  PMPE      O12           -22.9465846538       23.8859871980      -18.9138037325  MEMB      156             0.0000000000
     19303       156  PMPE      C1            -24.3043692562       24.3643163540      -16.5642305293  MEMB      156             0.0000000000
     19304       156  PMPE      HA            -24.5676752839       24.7799347097      -17.5603490829  MEMB      156             0.0000000000
     19305       156  PMPE      HB            -23.5991798419       25.1741218371      -16.2791971708  MEMB      156             0.0000000000
     19306       156  PMPE      C2            -25.4199427937       24.4277131235      -15.5016753944  MEMB      156             0.0000000000
     19307       156  PMPE      HS            -26.0383816182       25.3200887096      -15.7373026026  MEMB      156             0.0000000000
     19308       156  PMPE      O21           -24.7877177181       24.4293619451      -14.2396499114  MEMB      156             0.0000000000
     19309       156  PMPE      C21           -24.3788913997       25.6124167662      -13.8012316746  MEMB      156             0.0000000000
     19310       156  PMPE      O22           -24.3947033275       26.6905830873      -14.4761069618  MEMB      156             0.0000000000
     19311       156  PMPE      C22           -23.6268826060       25.3809452050      -12.5065242388  MEMB      156             0.0000000000
     19312       156  PMPE      H2R           -22.5883799938       25.0536318881      -12.7272039217  MEMB      156             0.0000000000
     19313       156  PMPE      H2S           -24.0968453833       24.5919098095      -11.8813212751  MEMB      156             0.0000000000
     19314       156  PMPE      C3            -26.2856064893       23.1770856188      -15.7154366213  MEMB      156             0.0000000000
     19315       156  PMPE      HX            -25.7107508017       22.2889974430      -16.0547910187  MEMB      156             0.0000000000
     19316       156  PMPE      HY            -26.8686891463       23.3927254821      -16.6362161314  MEMB      156             0.0000000000
     19317       156  PMPE      O31           -27.1032422273       22.7510185016      -14.6067239147  MEMB      156             0.0000000000
     19318       156  PMPE      C31           -27.7215437497       23.5493292758      -13.8273394789  MEMB      156             0.0000000000
     19319       156  PMPE      O32           -27.8574216258       24.7709282317      -13.9714812268  MEMB      156             0.0000000000
     19320       156  PMPE      C32           -28.1662649345       22.8030484958      -12.6141403201  MEMB      156             0.0000000000
     19321       156  PMPE      H2X           -27.6811767558       21.8151271741      -12.4624104751  MEMB      156             0.0000000000
     19322       156  PMPE      H2Y           -29.2330196178       22.5455209684      -12.7874472399  MEMB      156             0.0000000000
     19323       156  PMPE      C23           -23.5377224021       26.7720921347      -11.8252736017  MEMB      156             0.0000000000
     19324       156  PMPE      H3R           -24.5471091340       27.1983986152      -11.6416374750  MEMB      156             0.0000000000
     19325       156  PMPE      H3S           -23.0457549329       27.3861176556      -12.6096596392  MEMB      156             0.0000000000
     19326       156  PMPE      C24           -22.6296693215       26.8275487865      -10.5515785143  MEMB      156             0.0000000000
     19327       156  PMPE      H4R           -21.7553708453       26.2482604597      -10.9181142182  MEMB      156             0.0000000000
     19328       156  PMPE      H4S           -23.2233946405       26.2480148280       -9.8126936457  MEMB      156             0.0000000000
     19329       156  PMPE      C25           -22.3621101181       28.1846925307       -9.9705569285  MEMB      156             0.0000000000
     19330       156  PMPE      H5R           -21.6641315878       28.7425717394      -10.6307975555  MEMB      156             0.0000000000
     19331       156  PMPE      H5S           -21.7825025171       27.9844507183       -9.0441230269  MEMB      156             0.0000000000
     19332       156  PMPE      C26           -23.6041052047       28.9833625199       -9.6595661565  MEMB      156             0.0000000000
     19333       156  PMPE      H6R           -24.1565069846       29.3104066341      -10.5663271518  MEMB      156             0.0000000000
     19334       156  PMPE      H6S           -23.2841759092       29.8938477175       -9.1091273498  MEMB      156             0.0000000000
     19335       156  PMPE      C27           -24.5798260639       28.2882309934       -8.7383143880  MEMB      156             0.0000000000
     19336       156  PMPE      H7R           -24.8305450485       27.2659191092       -9.0937563819  MEMB      156             0.0000000000
     19337       156  PMPE      H7S           -25.5414833731       28.8445814931       -8.7415054658  MEMB      156             0.0000000000
     19338       156  PMPE      C28           -23.9827068077       27.9987466603       -7.3711377040  MEMB      156             0.0000000000
     19339       156  PMPE      H8R           -23.3391442833       28.8681891459       -7.1177258810  MEMB      156             0.0000000000
     19340       156  PMPE      H8S           -23.3197323311       27.1073018193       -7.3817182305  MEMB      156             0.0000000000
     19341       156  PMPE      C29           -25.0631386321       27.8120364590       -6.3676455633  MEMB      156             0.0000000000
     19342       156  PMPE      H9R           -25.9576246157       27.2619173719       -6.7303916227  MEMB      156             0.0000000000
     19343       156  PMPE      C217          -25.4561644073       29.0787916555       -5.5422320812  MEMB      156             0.0000000000
     19344       156  PMPE      H17R          -26.5180899304       29.0854303100       -5.3297253130  MEMB      156             0.0000000000
     19345       156  PMPE      H17S          -24.8507756308       29.9737932172       -5.4689845716  MEMB      156             0.0000000000
     19346       156  PMPE      C210          -24.9432861950       27.7893077718       -4.8617015349  MEMB      156             0.0000000000
     19347       156  PMPE      H10R          -25.6145651068       27.0277285541       -4.4103671326  MEMB      156             0.0000000000
     19348       156  PMPE      C211          -23.4307288849       27.7102475141       -4.4528425076  MEMB      156             0.0000000000
     19349       156  PMPE      H11R          -22.9076132162       28.6726221207       -4.6386014221  MEMB      156             0.0000000000
     19350       156  PMPE      H11S          -22.8959270343       26.9511542372       -5.0628301288  MEMB      156             0.0000000000
     19351       156  PMPE      C212          -23.2171784986       27.4799755926       -2.9013535081  MEMB      156             0.0000000000
     19352       156  PMPE      H12R          -23.8727738399       26.5929250991       -2.7684730671  MEMB      156             0.0000000000
     19353       156  PMPE      H12S          -23.5887386217       28.3900448500       -2.3836275512  MEMB      156             0.0000000000
     19354       156  PMPE      C213          -21.7782912839       27.1767401274       -2.4480885172  MEMB      156             0.0000000000
     19355       156  PMPE      H13R          -21.1906476217       28.1134670545       -2.3406709310  MEMB      156             0.0000000000
     19356       156  PMPE      H13S          -21.2480793331       26.4953624295       -3.1473184432  MEMB      156             0.0000000000
     19357       156  PMPE      C214          -21.8146489909       26.5378519876       -1.0179667131  MEMB      156             0.0000000000
     19358       156  PMPE      H14R          -22.3453993074       25.5699038151       -1.1432732922  MEMB      156             0.0000000000
     19359       156  PMPE      H14S          -22.4459735088       27.1732780599       -0.3607106713  MEMB      156             0.0000000000
     19360       156  PMPE      C215          -20.3934796648       26.4133837266       -0.3221169320  MEMB      156             0.0000000000
     19361       156  PMPE      H15R          -20.6767057284       25.9567421731        0.6502937515  MEMB      156             0.0000000000
     19362       156  PMPE      H15S          -19.9795805445       27.4268515932       -0.1326648262  MEMB      156             0.0000000000
     19363       156  PMPE      C216          -19.5071755635       25.4869981658       -1.2445092058  MEMB      156             0.0000000000
     19364       156  PMPE      H16R          -20.1456010473       24.6557081275       -1.6128699711  MEMB      156             0.0000000000
     19365       156  PMPE      H16S          -19.2289040192       26.1089347851       -2.1220508095  MEMB      156             0.0000000000
     19366       156  PMPE      H16T          -18.5793849856       25.1795091245       -0.7163275048  MEMB      156             0.0000000000
     19367       156  PMPE      C33           -28.1679974780       23.4998044143      -11.2822205245  MEMB      156             0.0000000000
     19368       156  PMPE      H3X           -28.8855826037       23.0384425429      -10.5705053977  MEMB      156             0.0000000000
     19369       156  PMPE      H3Y           -28.4706358283       24.5452264450      -11.5054329162  MEMB      156             0.0000000000
     19370       156  PMPE      C34           -26.7650378702       23.5792845235      -10.6028284532  MEMB      156             0.0000000000
     19371       156  PMPE      H4X           -26.9136472308       24.1220682152       -9.6449019277  MEMB      156             0.0000000000
     19372       156  PMPE      H4Y           -26.0276275416       24.1477332461      -11.2089745061  MEMB      156             0.0000000000
     19373       156  PMPE      C35           -26.1046909671       22.1885848872      -10.3396315693  MEMB      156             0.0000000000
     19374       156  PMPE      H5X           -25.8714894500       21.6702420624      -11.2942302466  MEMB      156             0.0000000000
     19375       156  PMPE      H5Y           -26.8521948388       21.5772720639       -9.7902176111  MEMB      156             0.0000000000
     19376       156  PMPE      C36           -24.8293039847       22.2351216120       -9.4956809077  MEMB      156             0.0000000000
     19377       156  PMPE      H6X           -23.9938549871       22.6023660826      -10.1293032133  MEMB      156             0.0000000000
     19378       156  PMPE      H6Y           -24.5907809528       21.1663967365       -9.3079178194  MEMB      156             0.0000000000
     19379       156  PMPE      C37           -24.9839266269       22.9783315246       -8.1400870244  MEMB      156             0.0000000000
     19380       156  PMPE      H7X           -25.9030291338       22.5960677852       -7.6466848832  MEMB      156             0.0000000000
     19381       156  PMPE      H7Y           -25.2543778591       24.0153761212       -8.4328593953  MEMB      156             0.0000000000
     19382       156  PMPE      C38           -23.7779232891       22.9164625288       -7.1266657935  MEMB      156             0.0000000000
     19383       156  PMPE      H8X           -22.8870195189       23.2643328691       -7.6919959240  MEMB      156             0.0000000000
     19384       156  PMPE      H8Y           -23.5706978171       21.8915767070       -6.7511827511  MEMB      156             0.0000000000
     19385       156  PMPE      C39           -23.9995150980       23.9202287889       -6.0283430961  MEMB      156             0.0000000000
     19386       156  PMPE      H9X           -24.8568250121       23.5841706473       -5.4067278904  MEMB      156             0.0000000000
     19387       156  PMPE      H9Y           -24.3251469757       24.8708805552       -6.5022062922  MEMB      156             0.0000000000
     19388       156  PMPE      C310          -22.8289475166       24.0633941748       -5.1063483302  MEMB      156             0.0000000000
     19389       156  PMPE      H10X          -23.0559739702       24.8186773614       -4.3238345101  MEMB      156             0.0000000000
     19390       156  PMPE      H10Y          -21.9387834384       24.4081343096       -5.6747520653  MEMB      156             0.0000000000
     19391       156  PMPE      C311          -22.5279992832       22.8008303026       -4.2667277230  MEMB      156             0.0000000000
     19392       156  PMPE      H11X          -21.9950287330       22.0064985206       -4.8317937082  MEMB      156             0.0000000000
     19393       156  PMPE      H11Y          -23.5017170729       22.3557624167       -3.9698956339  MEMB      156             0.0000000000
     19394       156  PMPE      C312          -21.7474928499       23.1288465539       -2.9657965174  MEMB      156             0.0000000000
     19395       156  PMPE      H12X          -22.1483824329       24.0838272688       -2.5637764976  MEMB      156             0.0000000000
     19396       156  PMPE      H12Y          -20.6994839911       23.3158436939       -3.2836498103  MEMB      156             0.0000000000
     19397       156  PMPE      C313          -21.8047141675       22.0573559296       -1.8458462290  MEMB      156             0.0000000000
     19398       156  PMPE      H13X          -21.5095347013       21.0441064707       -2.1929993331  MEMB      156             0.0000000000
     19399       156  PMPE      H13Y          -22.8919862683       21.9690244015       -1.6352323825  MEMB      156             0.0000000000
     19400       156  PMPE      C314          -21.1551737359       22.4208888667       -0.5809090574  MEMB      156             0.0000000000
     19401       156  PMPE      H14X          -21.5669730027       23.4469826635       -0.4719429253  MEMB      156             0.0000000000
     19402       156  PMPE      H14Y          -20.0502744443       22.5045953847       -0.6616076246  MEMB      156             0.0000000000
     19403       156  PMPE      C315          -21.4340179443       21.5378374555        0.6551237995  MEMB      156             0.0000000000
     19404       156  PMPE      H15X          -20.8954088070       20.6148579774        0.3512658230  MEMB      156             0.0000000000
     19405       156  PMPE      H15Y          -22.4822753966       21.3543901584        0.9742241917  MEMB      156             0.0000000000
     19406       156  PMPE      C316          -20.6478928410       21.9522138443        1.9590534455  MEMB      156             0.0000000000
     19407       156  PMPE      H16X          -19.5958058626       22.2220337490        1.7253213316  MEMB      156             0.0000000000
     19408       156  PMPE      H16Y          -20.6371643235       21.1499589391        2.7275534452  MEMB      156             0.0000000000
     19409       156  PMPE      H16Z          -21.2321270268       22.7922653049        2.3918408387  MEMB      156             0.0000000000
     19410       157  PMPE      N              -0.8393258230       35.9589572558      -20.2629499230  MEMB      157             0.0000000000
     19411       157  PMPE      HN1            -0.5831253005       36.0993931506      -19.2648322208  MEMB      157             0.0000000000
     19412       157  PMPE      HN2            -0.7381924817       36.7987387276      -20.8680443889  MEMB      157             0.0000000000
     19413       157  PMPE      HN3            -1.7785965785       35.5182408191      -20.3346396596  MEMB      157             0.0000000000
     19414       157  PMPE      C12            -0.1419189386       34.7260695868      -20.7978042848  MEMB      157             0.0000000000
     19415       157  PMPE      H12A            0.8365183597       34.8561705063      -20.2878482627  MEMB      157             0.0000000000
     19416       157  PMPE      H12B            0.1333202828       34.8909476469      -21.8614676432  MEMB      157             0.0000000000
     19417       157  PMPE      C11            -0.8647220013       33.3828997455      -20.4532057662  MEMB      157             0.0000000000
     19418       157  PMPE      H11A           -0.4665154124       32.4979842436      -20.9942022257  MEMB      157             0.0000000000
     19419       157  PMPE      H11B           -1.9268570543       33.4382020296      -20.7743471896  MEMB      157             0.0000000000
     19420       157  PMPE      P              -1.9240996405       32.9679904687      -18.1096060594  MEMB      157             0.0000000000
     19421       157  PMPE      O13            -2.7069304201       31.6862427528      -18.2440661581  MEMB      157             0.0000000000
     19422       157  PMPE      O14            -2.6455742918       34.2186931497      -18.3628875604  MEMB      157             0.0000000000
     19423       157  PMPE      O11            -1.3326555745       33.1973834159      -16.7007458611  MEMB      157             0.0000000000
     19424       157  PMPE      O12            -0.6520318697       32.9742172276      -19.0687343858  MEMB      157             0.0000000000
     19425       157  PMPE      C1             -0.1561482090       33.9008790073      -16.5698282738  MEMB      157             0.0000000000
     19426       157  PMPE      HA             -0.0079582089       34.6101354575      -17.4120373460  MEMB      157             0.0000000000
     19427       157  PMPE      HB              0.6933399645       33.1859643001      -16.5299795916  MEMB      157             0.0000000000
     19428       157  PMPE      C2             -0.1241673044       34.7525348922      -15.2076930718  MEMB      157             0.0000000000
     19429       157  PMPE      HS              0.8348084007       35.3132315352      -15.1902024738  MEMB      157             0.0000000000
     19430       157  PMPE      O21            -0.2103573937       33.8363391339      -14.1003686599  MEMB      157             0.0000000000
     19431       157  PMPE      C21             0.2700943819       34.4339197950      -12.9803830177  MEMB      157             0.0000000000
     19432       157  PMPE      O22             0.6908131289       35.5764288326      -12.9036831736  MEMB      157             0.0000000000
     19433       157  PMPE      C22            -0.1058568798       33.6576004532      -11.7615581747  MEMB      157             0.0000000000
     19434       157  PMPE      H2R            -0.3830346573       32.6242420380      -12.0609970523  MEMB      157             0.0000000000
     19435       157  PMPE      H2S            -0.9140782446       34.1687045451      -11.1959863989  MEMB      157             0.0000000000
     19436       157  PMPE      C3             -1.2276184075       35.7951854918      -15.1709268676  MEMB      157             0.0000000000
     19437       157  PMPE      HX             -1.3932365276       36.1805536810      -16.1997042986  MEMB      157             0.0000000000
     19438       157  PMPE      HY             -0.8802787515       36.5923211753      -14.4793700763  MEMB      157             0.0000000000
     19439       157  PMPE      O31            -2.4109439218       35.0867063485      -14.7494055494  MEMB      157             0.0000000000
     19440       157  PMPE      C31            -3.5633821882       35.8792378646      -14.8959382251  MEMB      157             0.0000000000
     19441       157  PMPE      O32            -3.6125054086       36.9053993366      -15.5336675451  MEMB      157             0.0000000000
     19442       157  PMPE      C32            -4.6923609600       35.1548182172      -14.1330290550  MEMB      157             0.0000000000
     19443       157  PMPE      H2X            -4.3868271642       34.4043780970      -13.3728912698  MEMB      157             0.0000000000
     19444       157  PMPE      H2Y            -5.4149136662       34.7085841042      -14.8493486168  MEMB      157             0.0000000000
     19445       157  PMPE      C23             1.0465927960       33.5619194271      -10.7771257823  MEMB      157             0.0000000000
     19446       157  PMPE      H3R             1.3126235205       34.5559086236      -10.3581581558  MEMB      157             0.0000000000
     19447       157  PMPE      H3S             1.9851923521       33.0760877083      -11.1196450377  MEMB      157             0.0000000000
     19448       157  PMPE      C24             0.5699110658       32.7500283249       -9.6042814456  MEMB      157             0.0000000000
     19449       157  PMPE      H4R             0.6720760997       31.6723303677       -9.8541821510  MEMB      157             0.0000000000
     19450       157  PMPE      H4S            -0.4941455126       32.9439211091       -9.3502932282  MEMB      157             0.0000000000
     19451       157  PMPE      C25             1.4619199587       32.9552191313       -8.3666801425  MEMB      157             0.0000000000
     19452       157  PMPE      H5R             1.6122543033       33.9718451743       -7.9445521827  MEMB      157             0.0000000000
     19453       157  PMPE      H5S             2.4665297342       32.5738603275       -8.6488958136  MEMB      157             0.0000000000
     19454       157  PMPE      C26             0.8110717141       32.0201444095       -7.2033008021  MEMB      157             0.0000000000
     19455       157  PMPE      H6R             0.9837888238       30.9587812127       -7.4825818917  MEMB      157             0.0000000000
     19456       157  PMPE      H6S            -0.2746006274       32.2181747344       -7.0751582958  MEMB      157             0.0000000000
     19457       157  PMPE      C27             1.3716670690       32.3648824706       -5.8204288572  MEMB      157             0.0000000000
     19458       157  PMPE      H7R             1.2132019997       33.4582619658       -5.7032498745  MEMB      157             0.0000000000
     19459       157  PMPE      H7S             2.4820412891       32.3468036563       -5.8530303701  MEMB      157             0.0000000000
     19460       157  PMPE      C28             0.9084889896       31.4544970896       -4.7134389844  MEMB      157             0.0000000000
     19461       157  PMPE      H8R            -0.1840468957       31.4870755683       -4.5143790642  MEMB      157             0.0000000000
     19462       157  PMPE      H8S             1.3571479811       31.7334160841       -3.7360805906  MEMB      157             0.0000000000
     19463       157  PMPE      C29             1.3323643378       30.0012672705       -5.0134822965  MEMB      157             0.0000000000
     19464       157  PMPE      H9R             2.2462217372       29.7367016489       -5.5872329346  MEMB      157             0.0000000000
     19465       157  PMPE      C217            0.1163777171       29.1653913325       -5.4061286993  MEMB      157             0.0000000000
     19466       157  PMPE      H17R            0.3947609719       28.3950988159       -6.1146774759  MEMB      157             0.0000000000
     19467       157  PMPE      H17S           -0.8363611570       29.6803444212       -5.4051695580  MEMB      157             0.0000000000
     19468       157  PMPE      C210            0.8192835607       28.9075749145       -4.1198346405  MEMB      157             0.0000000000
     19469       157  PMPE      H10R            1.4580838550       28.0004800782       -4.1784347729  MEMB      157             0.0000000000
     19470       157  PMPE      C211           -0.0036962005       29.2165342158       -2.8528223088  MEMB      157             0.0000000000
     19471       157  PMPE      H11R           -0.6406421278       28.3185836275       -2.7034705692  MEMB      157             0.0000000000
     19472       157  PMPE      H11S           -0.5477571548       30.1734617479       -3.0031826953  MEMB      157             0.0000000000
     19473       157  PMPE      C212            1.0001590585       29.4958823863       -1.7716321659  MEMB      157             0.0000000000
     19474       157  PMPE      H12R            1.6695801760       30.3418869240       -2.0370973968  MEMB      157             0.0000000000
     19475       157  PMPE      H12S            1.7580451573       28.6857141023       -1.8312730145  MEMB      157             0.0000000000
     19476       157  PMPE      C213            0.3845951004       29.7383296503       -0.4448288565  MEMB      157             0.0000000000
     19477       157  PMPE      H13R           -0.2963568000       28.9054424359       -0.1674763400  MEMB      157             0.0000000000
     19478       157  PMPE      H13S           -0.2914400957       30.6108880667       -0.5710825340  MEMB      157             0.0000000000
     19479       157  PMPE      C214            1.2553103437       29.9944258594        0.7774407858  MEMB      157             0.0000000000
     19480       157  PMPE      H14R            0.7489722096       30.6207221781        1.5427484044  MEMB      157             0.0000000000
     19481       157  PMPE      H14S            2.1036816734       30.5931939540        0.3823925134  MEMB      157             0.0000000000
     19482       157  PMPE      C215            1.6433062757       28.7190475574        1.5714902344  MEMB      157             0.0000000000
     19483       157  PMPE      H15R            0.7427776329       28.4931823203        2.1816989904  MEMB      157             0.0000000000
     19484       157  PMPE      H15S            2.3023143895       28.9647666907        2.4315208417  MEMB      157             0.0000000000
     19485       157  PMPE      C216            2.2436522156       27.5036541052        0.7449865108  MEMB      157             0.0000000000
     19486       157  PMPE      H16R            2.1950099293       26.5733813793        1.3504195582  MEMB      157             0.0000000000
     19487       157  PMPE      H16S            1.6221795130       27.2249789429       -0.1327561430  MEMB      157             0.0000000000
     19488       157  PMPE      H16T            3.2932968831       27.6767448820        0.4246640361  MEMB      157             0.0000000000
     19489       157  PMPE      C33            -5.3840344084       36.2179556486      -13.2103763760  MEMB      157             0.0000000000
     19490       157  PMPE      H3X            -6.2720603465       35.6796550789      -12.8154540523  MEMB      157             0.0000000000
     19491       157  PMPE      H3Y            -5.7469025437       37.0691440097      -13.8252957267  MEMB      157             0.0000000000
     19492       157  PMPE      C34            -4.4436641634       36.8652131110      -12.1744744706  MEMB      157             0.0000000000
     19493       157  PMPE      H4X            -4.9760901125       37.7780235995      -11.8315155208  MEMB      157             0.0000000000
     19494       157  PMPE      H4Y            -3.5614088723       37.2503728074      -12.7290900544  MEMB      157             0.0000000000
     19495       157  PMPE      C35            -4.0744632497       36.0431508762      -10.8865916033  MEMB      157             0.0000000000
     19496       157  PMPE      H5X            -3.7521736862       35.1024456467      -11.3820950559  MEMB      157             0.0000000000
     19497       157  PMPE      H5Y            -4.8987039875       35.8881744843      -10.1579418910  MEMB      157             0.0000000000
     19498       157  PMPE      C36            -2.9852835967       36.7154885088      -10.0875498306  MEMB      157             0.0000000000
     19499       157  PMPE      H6X            -3.2337637734       37.7694510367       -9.8390705552  MEMB      157             0.0000000000
     19500       157  PMPE      H6Y            -2.0472902538       36.5548775001      -10.6608678824  MEMB      157             0.0000000000
     19501       157  PMPE      C37            -2.9185167414       36.0671274465       -8.6904276258  MEMB      157             0.0000000000
     19502       157  PMPE      H7X            -3.0861766863       34.9736670566       -8.7931688110  MEMB      157             0.0000000000
     19503       157  PMPE      H7Y            -3.7336580770       36.5335230736       -8.0968449904  MEMB      157             0.0000000000
     19504       157  PMPE      C38            -1.5102080281       36.3226664632       -8.0830649709  MEMB      157             0.0000000000
     19505       157  PMPE      H8X            -1.4244847898       37.4205585313       -7.9360767540  MEMB      157             0.0000000000
     19506       157  PMPE      H8Y            -0.7603367763       35.9324679639       -8.8040085200  MEMB      157             0.0000000000
     19507       157  PMPE      C39            -1.3129812847       35.6517720351       -6.6616370792  MEMB      157             0.0000000000
     19508       157  PMPE      H9X            -0.5043099572       36.2729147679       -6.2205552058  MEMB      157             0.0000000000
     19509       157  PMPE      H9Y            -1.0574552868       34.5906497496       -6.8691145526  MEMB      157             0.0000000000
     19510       157  PMPE      C310           -2.4629283956       35.8227470361       -5.6125750735  MEMB      157             0.0000000000
     19511       157  PMPE      H10X           -3.3146629561       35.2197809402       -5.9937585278  MEMB      157             0.0000000000
     19512       157  PMPE      H10Y           -2.7003776965       36.8926871303       -5.7946921390  MEMB      157             0.0000000000
     19513       157  PMPE      C311           -2.0137562759       35.6534734462       -4.0975791239  MEMB      157             0.0000000000
     19514       157  PMPE      H11X           -2.9371465040       35.8818024612       -3.5235256153  MEMB      157             0.0000000000
     19515       157  PMPE      H11Y           -1.1428167221       36.2959942350       -3.8466762234  MEMB      157             0.0000000000
     19516       157  PMPE      C312           -1.6900829893       34.1648435593       -3.8330958796  MEMB      157             0.0000000000
     19517       157  PMPE      H12X           -0.7936407996       33.8577543758       -4.4131042783  MEMB      157             0.0000000000
     19518       157  PMPE      H12Y           -2.4842740229       33.5344876090       -4.2872252396  MEMB      157             0.0000000000
     19519       157  PMPE      C313           -1.4800383143       33.7266690834       -2.2914646984  MEMB      157             0.0000000000
     19520       157  PMPE      H13X           -0.9128523117       34.5308166468       -1.7757449457  MEMB      157             0.0000000000
     19521       157  PMPE      H13Y           -0.9597782795       32.7904866463       -1.9961474808  MEMB      157             0.0000000000
     19522       157  PMPE      C314           -2.8164738445       33.7389687332       -1.4142652226  MEMB      157             0.0000000000
     19523       157  PMPE      H14X           -3.2569384843       34.7518111992       -1.5345224728  MEMB      157             0.0000000000
     19524       157  PMPE      H14Y           -2.6930723270       33.3064394006       -0.3983863288  MEMB      157             0.0000000000
     19525       157  PMPE      C315           -3.8487307844       32.7881566302       -2.1367208672  MEMB      157             0.0000000000
     19526       157  PMPE      H15X           -4.1932144930       33.1347796079       -3.1344715574  MEMB      157             0.0000000000
     19527       157  PMPE      H15Y           -4.7856197893       32.7587667099       -1.5403190981  MEMB      157             0.0000000000
     19528       157  PMPE      C316           -3.3826961197       31.3584712440       -2.3084041123  MEMB      157             0.0000000000
     19529       157  PMPE      H16X           -4.0969520156       30.7559167625       -2.9093088101  MEMB      157             0.0000000000
     19530       157  PMPE      H16Y           -3.3304446982       30.9041747847       -1.2958779976  MEMB      157             0.0000000000
     19531       157  PMPE      H16Z           -2.3768188800       31.3846095703       -2.7794117828  MEMB      157             0.0000000000
     19532       158  PMPE      N              -9.0834074555       34.8356058193      -17.7161069192  MEMB      158             0.0000000000
     19533       158  PMPE      HN1            -8.7915277243       35.3173147182      -18.5903853422  MEMB      158             0.0000000000
     19534       158  PMPE      HN2            -8.7300762971       35.3507923168      -16.8846384719  MEMB      158             0.0000000000
     19535       158  PMPE      HN3            -8.7458087274       33.8543703340      -17.7854173249  MEMB      158             0.0000000000
     19536       158  PMPE      C12           -10.6152674030       34.9788477064      -17.7996698034  MEMB      158             0.0000000000
     19537       158  PMPE      H12A          -10.9334913179       36.0274313635      -17.9827739701  MEMB      158             0.0000000000
     19538       158  PMPE      H12B          -10.8541730895       34.6320001995      -16.7715930490  MEMB      158             0.0000000000
     19539       158  PMPE      C11           -11.1206237766       33.9390047923      -18.8820748066  MEMB      158             0.0000000000
     19540       158  PMPE      H11A          -10.6646515801       34.2511322302      -19.8459144516  MEMB      158             0.0000000000
     19541       158  PMPE      H11B          -12.2262972388       33.9023050499      -18.9843493172  MEMB      158             0.0000000000
     19542       158  PMPE      P             -10.3667526001       31.3843265307      -19.6311895585  MEMB      158             0.0000000000
     19543       158  PMPE      O13            -9.0721216025       31.5333520232      -20.3185740818  MEMB      158             0.0000000000
     19544       158  PMPE      O14           -11.6306625108       31.3318600366      -20.4066270283  MEMB      158             0.0000000000
     19545       158  PMPE      O11           -10.4017388617       30.1434984941      -18.6853650872  MEMB      158             0.0000000000
     19546       158  PMPE      O12           -10.4912545975       32.6293573991      -18.5603926872  MEMB      158             0.0000000000
     19547       158  PMPE      C1            -10.1255994725       30.0761844522      -17.3227767572  MEMB      158             0.0000000000
     19548       158  PMPE      HA             -9.5662849934       30.9780241449      -16.9938798504  MEMB      158             0.0000000000
     19549       158  PMPE      HB             -9.6575184067       29.0899182840      -17.1166207837  MEMB      158             0.0000000000
     19550       158  PMPE      C2            -11.4258738034       30.0369617563      -16.4892950831  MEMB      158             0.0000000000
     19551       158  PMPE      HS            -11.8392675976       29.0162976178      -16.6365059037  MEMB      158             0.0000000000
     19552       158  PMPE      O21           -12.2726239404       31.0941467581      -16.9098070840  MEMB      158             0.0000000000
     19553       158  PMPE      C21           -13.5744151456       30.8753825134      -16.6396713180  MEMB      158             0.0000000000
     19554       158  PMPE      O22           -14.0507485924       29.9111473150      -16.1306486224  MEMB      158             0.0000000000
     19555       158  PMPE      C22           -14.3368817130       32.1137176002      -17.0571409491  MEMB      158             0.0000000000
     19556       158  PMPE      H2R           -15.4136579858       31.9074636423      -17.2369549014  MEMB      158             0.0000000000
     19557       158  PMPE      H2S           -14.0164255986       32.6127385672      -17.9966126137  MEMB      158             0.0000000000
     19558       158  PMPE      C3            -11.1868680928       30.1286452165      -14.9359643113  MEMB      158             0.0000000000
     19559       158  PMPE      HX            -10.2754346627       29.5648341689      -14.6431718494  MEMB      158             0.0000000000
     19560       158  PMPE      HY            -12.0871820316       29.7878113521      -14.3813578771  MEMB      158             0.0000000000
     19561       158  PMPE      O31           -11.0364510036       31.5863538417      -14.6277200314  MEMB      158             0.0000000000
     19562       158  PMPE      C31           -10.1404049396       31.9057890724      -13.7068969894  MEMB      158             0.0000000000
     19563       158  PMPE      O32            -9.5622697017       31.1204731684      -12.9479096272  MEMB      158             0.0000000000
     19564       158  PMPE      C32           -10.0820018987       33.4464080287      -13.6851199076  MEMB      158             0.0000000000
     19565       158  PMPE      H2X           -10.9429371396       33.7257138598      -13.0408374187  MEMB      158             0.0000000000
     19566       158  PMPE      H2Y           -10.3363784529       33.8894119399      -14.6717103171  MEMB      158             0.0000000000
     19567       158  PMPE      C23           -14.1835905393       33.2668447860      -15.9978740715  MEMB      158             0.0000000000
     19568       158  PMPE      H3R           -14.7616295513       34.1616733868      -16.3132687400  MEMB      158             0.0000000000
     19569       158  PMPE      H3S           -13.1056240683       33.5345856542      -16.0228588430  MEMB      158             0.0000000000
     19570       158  PMPE      C24           -14.4783005526       32.8521366300      -14.4668010889  MEMB      158             0.0000000000
     19571       158  PMPE      H4R           -13.6626650306       32.1004667984      -14.4031426741  MEMB      158             0.0000000000
     19572       158  PMPE      H4S           -15.5032288707       32.4627559259      -14.2872867494  MEMB      158             0.0000000000
     19573       158  PMPE      C25           -14.1452159787       33.9985553749      -13.5381531504  MEMB      158             0.0000000000
     19574       158  PMPE      H5R           -14.9418784792       34.7285198569      -13.7966122600  MEMB      158             0.0000000000
     19575       158  PMPE      H5S           -13.1565803568       34.4917893250      -13.6549487958  MEMB      158             0.0000000000
     19576       158  PMPE      C26           -14.4941070891       33.7236321854      -12.0298619719  MEMB      158             0.0000000000
     19577       158  PMPE      H6R           -15.4160503840       33.1221856159      -11.8795161439  MEMB      158             0.0000000000
     19578       158  PMPE      H6S           -14.6329442403       34.6072379427      -11.3708575911  MEMB      158             0.0000000000
     19579       158  PMPE      C27           -13.2253674793       33.0482259188      -11.3037422783  MEMB      158             0.0000000000
     19580       158  PMPE      H7R           -12.4248405742       33.7940710557      -11.1108884493  MEMB      158             0.0000000000
     19581       158  PMPE      H7S           -12.8590766773       32.2868246856      -12.0251437228  MEMB      158             0.0000000000
     19582       158  PMPE      C28           -13.8130088966       32.2717728534      -10.1114801317  MEMB      158             0.0000000000
     19583       158  PMPE      H8R           -14.6427430728       31.6610360404      -10.5272480262  MEMB      158             0.0000000000
     19584       158  PMPE      H8S           -14.3966049499       33.0071958556       -9.5174353454  MEMB      158             0.0000000000
     19585       158  PMPE      C29           -12.8819143746       31.5070371093       -9.2465031227  MEMB      158             0.0000000000
     19586       158  PMPE      H9R           -11.8884460612       31.9279054943       -8.9815285166  MEMB      158             0.0000000000
     19587       158  PMPE      C217          -12.7531819063       29.9885430114       -9.4528983337  MEMB      158             0.0000000000
     19588       158  PMPE      H17R          -11.8360309595       29.4966606116       -9.1532741293  MEMB      158             0.0000000000
     19589       158  PMPE      H17S          -13.4341133523       29.6307806139      -10.2152810629  MEMB      158             0.0000000000
     19590       158  PMPE      C210          -13.4330837251       30.5629912694       -8.1980630812  MEMB      158             0.0000000000
     19591       158  PMPE      H10R          -12.8245328562       30.5990325649       -7.2692535090  MEMB      158             0.0000000000
     19592       158  PMPE      C211          -14.9712343093       30.2206083452       -8.0306339031  MEMB      158             0.0000000000
     19593       158  PMPE      H11R          -15.0912975683       29.4168363410       -7.2731009861  MEMB      158             0.0000000000
     19594       158  PMPE      H11S          -15.4078387689       29.8788388992       -8.9933863608  MEMB      158             0.0000000000
     19595       158  PMPE      C212          -15.8757065831       31.3664278290       -7.4814856541  MEMB      158             0.0000000000
     19596       158  PMPE      H12R          -16.8992541070       30.9858710202       -7.2769174721  MEMB      158             0.0000000000
     19597       158  PMPE      H12S          -15.9494893524       32.1019906102       -8.3108373396  MEMB      158             0.0000000000
     19598       158  PMPE      C213          -15.3925706289       32.1276664695       -6.3003887782  MEMB      158             0.0000000000
     19599       158  PMPE      H13R          -15.9049033479       33.1134092272       -6.3125382832  MEMB      158             0.0000000000
     19600       158  PMPE      H13S          -14.2975290020       32.3114920180       -6.3379791591  MEMB      158             0.0000000000
     19601       158  PMPE      C214          -15.7529961396       31.4785995729       -4.9629481089  MEMB      158             0.0000000000
     19602       158  PMPE      H14R          -15.4794441797       30.4018123010       -4.9673263180  MEMB      158             0.0000000000
     19603       158  PMPE      H14S          -16.8594270723       31.4860453900       -4.8625664819  MEMB      158             0.0000000000
     19604       158  PMPE      C215          -15.1183948996       32.2351472952       -3.7266315378  MEMB      158             0.0000000000
     19605       158  PMPE      H15R          -15.1353724067       33.3430186281       -3.8082023421  MEMB      158             0.0000000000
     19606       158  PMPE      H15S          -14.0824733295       31.8733933758       -3.5525012621  MEMB      158             0.0000000000
     19607       158  PMPE      C216          -15.8563194930       31.9021802922       -2.4112639970  MEMB      158             0.0000000000
     19608       158  PMPE      H16R          -15.7133664879       30.8232077003       -2.1883206361  MEMB      158             0.0000000000
     19609       158  PMPE      H16S          -15.4813705091       32.5490422063       -1.5894949390  MEMB      158             0.0000000000
     19610       158  PMPE      H16T          -16.9224053352       32.1890264648       -2.5357669347  MEMB      158             0.0000000000
     19611       158  PMPE      C33            -8.7457962998       33.9173697008      -13.1277674329  MEMB      158             0.0000000000
     19612       158  PMPE      H3X            -7.9737606133       33.8137406085      -13.9199435365  MEMB      158             0.0000000000
     19613       158  PMPE      H3Y            -8.4245224591       33.3145346243      -12.2515859746  MEMB      158             0.0000000000
     19614       158  PMPE      C34            -8.7925720591       35.3644095472      -12.5714657212  MEMB      158             0.0000000000
     19615       158  PMPE      H4X            -9.0360770087       35.9871233160      -13.4587391336  MEMB      158             0.0000000000
     19616       158  PMPE      H4Y            -7.7205009435       35.6295728127      -12.4503322703  MEMB      158             0.0000000000
     19617       158  PMPE      C35            -9.5065131998       35.6406724607      -11.2233143771  MEMB      158             0.0000000000
     19618       158  PMPE      H5X           -10.5870870670       35.4312618652      -11.3744050616  MEMB      158             0.0000000000
     19619       158  PMPE      H5Y            -9.5063743184       36.7186743277      -10.9545519648  MEMB      158             0.0000000000
     19620       158  PMPE      C36            -8.8845855900       34.7361448877      -10.0771586617  MEMB      158             0.0000000000
     19621       158  PMPE      H6X            -7.7774822737       34.8290556102      -10.0738014325  MEMB      158             0.0000000000
     19622       158  PMPE      H6Y            -9.0427127327       33.6465975045      -10.2261648773  MEMB      158             0.0000000000
     19623       158  PMPE      C37            -9.4322136078       35.0259677547       -8.6023384213  MEMB      158             0.0000000000
     19624       158  PMPE      H7X            -9.1255857558       34.1556677355       -7.9835664106  MEMB      158             0.0000000000
     19625       158  PMPE      H7Y           -10.5286165139       34.8873920839       -8.7164367627  MEMB      158             0.0000000000
     19626       158  PMPE      C38            -9.0047766901       36.3733820673       -8.1122278596  MEMB      158             0.0000000000
     19627       158  PMPE      H8X            -9.3780483929       37.2237350316       -8.7220544243  MEMB      158             0.0000000000
     19628       158  PMPE      H8Y            -7.9109323263       36.5214414562       -7.9861158378  MEMB      158             0.0000000000
     19629       158  PMPE      C39            -9.6294594067       36.7008435676       -6.6791736740  MEMB      158             0.0000000000
     19630       158  PMPE      H9X           -10.6892053295       36.4670082402       -6.4413066456  MEMB      158             0.0000000000
     19631       158  PMPE      H9Y            -9.5656277931       37.8060143805       -6.5851277540  MEMB      158             0.0000000000
     19632       158  PMPE      C310           -8.8324020636       36.1606277122       -5.4921881493  MEMB      158             0.0000000000
     19633       158  PMPE      H10X           -7.7985688345       36.5241655006       -5.6748071010  MEMB      158             0.0000000000
     19634       158  PMPE      H10Y           -8.8560482929       35.0501407577       -5.5162866307  MEMB      158             0.0000000000
     19635       158  PMPE      C311           -9.3181269831       36.5970153133       -4.1129660841  MEMB      158             0.0000000000
     19636       158  PMPE      H11X          -10.2880494076       36.1525743192       -3.8030554112  MEMB      158             0.0000000000
     19637       158  PMPE      H11Y           -9.3535085815       37.7053636122       -4.0448998287  MEMB      158             0.0000000000
     19638       158  PMPE      C312           -8.3514449015       36.2853374654       -2.9071990171  MEMB      158             0.0000000000
     19639       158  PMPE      H12X           -7.4689079853       36.9523921043       -3.0096075166  MEMB      158             0.0000000000
     19640       158  PMPE      H12Y           -7.8479517420       35.3056936163       -3.0525042309  MEMB      158             0.0000000000
     19641       158  PMPE      C313           -8.8919045541       36.5325302914       -1.5234429099  MEMB      158             0.0000000000
     19642       158  PMPE      H13X           -9.5018286052       37.4607711159       -1.4973176928  MEMB      158             0.0000000000
     19643       158  PMPE      H13Y           -7.9787459620       36.7191302778       -0.9187602419  MEMB      158             0.0000000000
     19644       158  PMPE      C314           -9.7798171468       35.4672974931       -0.9091409032  MEMB      158             0.0000000000
     19645       158  PMPE      H14X          -10.6965247104       35.2792171690       -1.5079683601  MEMB      158             0.0000000000
     19646       158  PMPE      H14Y          -10.0597208266       35.8505640883        0.0953896134  MEMB      158             0.0000000000
     19647       158  PMPE      C315           -9.1175562795       34.0734734578       -0.5799270214  MEMB      158             0.0000000000
     19648       158  PMPE      H15X           -8.1196166409       34.2714186735       -0.1335480907  MEMB      158             0.0000000000
     19649       158  PMPE      H15Y           -8.8638105657       33.7286751747       -1.6051335681  MEMB      158             0.0000000000
     19650       158  PMPE      C316          -10.0413169958       33.1410839867        0.1479383221  MEMB      158             0.0000000000
     19651       158  PMPE      H16X          -10.9738091731       33.0780444335       -0.4527322289  MEMB      158             0.0000000000
     19652       158  PMPE      H16Y          -10.3249800392       33.5190851712        1.1534091860  MEMB      158             0.0000000000
     19653       158  PMPE      H16Z           -9.6441341700       32.1525954173        0.4633074582  MEMB      158             0.0000000000
     19654       159  PMPG      C13            32.6309160666        4.3580626633      -17.2270697641  MEMB      159             0.0000000000
     19655       159  PMPG      H13A           32.1407646007        3.9689281791      -16.3091117169  MEMB      159             0.0000000000
     19656       159  PMPG      H13B           33.3969009689        5.0986770253      -16.9123023912  MEMB      159             0.0000000000
     19657       159  PMPG      OC3            31.7331656321        5.0638833912      -18.1211043226  MEMB      159             0.0000000000
     19658       159  PMPG      HO3            30.9777885860        4.4723241370      -18.1537140321  MEMB      159             0.0000000000
     19659       159  PMPG      C12            33.1183790269        3.0612449920      -17.9558074454  MEMB      159             0.0000000000
     19660       159  PMPG      H12A           32.2111780649        2.4725198213      -18.2263035230  MEMB      159             0.0000000000
     19661       159  PMPG      OC2            33.9108598442        2.2680272508      -17.0710359160  MEMB      159             0.0000000000
     19662       159  PMPG      HO2            34.2672764367        1.5682572953      -17.6609563021  MEMB      159             0.0000000000
     19663       159  PMPG      C11            33.8767891371        3.3724366024      -19.2213337708  MEMB      159             0.0000000000
     19664       159  PMPG      H11A           33.2629155041        3.5438444609      -20.1313334600  MEMB      159             0.0000000000
     19665       159  PMPG      H11B           34.4859470821        2.4810765310      -19.4834882977  MEMB      159             0.0000000000
     19666       159  PMPG      P              35.5907221971        4.9920796884      -20.1403953961  MEMB      159             0.0000000000
     19667       159  PMPG      O13            35.6827599476        6.4801544754      -20.2841859192  MEMB      159             0.0000000000
     19668       159  PMPG      O14            35.2603684026        4.2882625736      -21.4508860481  MEMB      159             0.0000000000
     19669       159  PMPG      O11            37.0391515537        4.4934930119      -19.5687461789  MEMB      159             0.0000000000
     19670       159  PMPG      O12            34.6210742253        4.5070470352      -18.9594352814  MEMB      159             0.0000000000
     19671       159  PMPG      C1             37.2927949562        4.8268422948      -18.1844155530  MEMB      159             0.0000000000
     19672       159  PMPG      HA             36.4505674323        5.0013465875      -17.4811929239  MEMB      159             0.0000000000
     19673       159  PMPG      HB             37.9599143146        5.7146781343      -18.2163625574  MEMB      159             0.0000000000
     19674       159  PMPG      C2             38.2049462643        3.7017254705      -17.5585367291  MEMB      159             0.0000000000
     19675       159  PMPG      HS             39.1454570032        3.6232977554      -18.1447191916  MEMB      159             0.0000000000
     19676       159  PMPG      O21            37.5043250049        2.4799153856      -17.6170805363  MEMB      159             0.0000000000
     19677       159  PMPG      C21            38.2766238791        1.4017888855      -17.4934216915  MEMB      159             0.0000000000
     19678       159  PMPG      O22            39.4835613331        1.3814940507      -17.6090874540  MEMB      159             0.0000000000
     19679       159  PMPG      C22            37.4376752632        0.1566463883      -17.1395764576  MEMB      159             0.0000000000
     19680       159  PMPG      H2R            37.9475081773       -0.6055618973      -17.7668162257  MEMB      159             0.0000000000
     19681       159  PMPG      H2S            36.3807275409        0.1457936509      -17.4817237575  MEMB      159             0.0000000000
     19682       159  PMPG      C3             38.4448448654        4.0403778401      -16.0857872144  MEMB      159             0.0000000000
     19683       159  PMPG      HX             38.9441275237        5.0207036443      -15.9308709235  MEMB      159             0.0000000000
     19684       159  PMPG      HY             39.0381766447        3.2231549263      -15.6227268161  MEMB      159             0.0000000000
     19685       159  PMPG      O31            37.1803137746        3.9381644058      -15.4367321696  MEMB      159             0.0000000000
     19686       159  PMPG      C31            37.3460047778        4.3497181955      -14.1055001764  MEMB      159             0.0000000000
     19687       159  PMPG      O32            38.4152258376        4.4654052887      -13.6105997375  MEMB      159             0.0000000000
     19688       159  PMPG      C32            35.9580896548        4.5926173354      -13.4889586093  MEMB      159             0.0000000000
     19689       159  PMPG      H2X            35.5239198160        3.5859077322      -13.3090882985  MEMB      159             0.0000000000
     19690       159  PMPG      H2Y            35.3301593756        5.0347503542      -14.2917927085  MEMB      159             0.0000000000
     19691       159  PMPG      C23            37.6928012261       -0.1806615347      -15.7290434430  MEMB      159             0.0000000000
     19692       159  PMPG      H3R            38.6821872998        0.1117092188      -15.3167866993  MEMB      159             0.0000000000
     19693       159  PMPG      H3S            37.5365054121       -1.2689214707      -15.5690962920  MEMB      159             0.0000000000
     19694       159  PMPG      C24            36.7332824192        0.4752890579      -14.7173579249  MEMB      159             0.0000000000
     19695       159  PMPG      H4R            35.6512603597        0.3766380275      -14.9493438188  MEMB      159             0.0000000000
     19696       159  PMPG      H4S            37.0506506917        1.5379496189      -14.6513966335  MEMB      159             0.0000000000
     19697       159  PMPG      C25            36.9432193176       -0.0315824218      -13.3238697931  MEMB      159             0.0000000000
     19698       159  PMPG      H5R            38.0153791892       -0.3035220937      -13.2197407529  MEMB      159             0.0000000000
     19699       159  PMPG      H5S            36.3525371540       -0.9642461092      -13.1991545124  MEMB      159             0.0000000000
     19700       159  PMPG      C26            36.5558948349        0.9699743991      -12.2315381132  MEMB      159             0.0000000000
     19701       159  PMPG      H6R            35.4772157546        1.2010594958      -12.3633419259  MEMB      159             0.0000000000
     19702       159  PMPG      H6S            37.1402102008        1.8953683428      -12.4226991313  MEMB      159             0.0000000000
     19703       159  PMPG      C27            36.9889143715        0.5831791505      -10.8951863867  MEMB      159             0.0000000000
     19704       159  PMPG      H7R            38.0995763318        0.5719974640      -10.8701664661  MEMB      159             0.0000000000
     19705       159  PMPG      H7S            36.7329442859       -0.4869599109      -10.7415551452  MEMB      159             0.0000000000
     19706       159  PMPG      C28            36.4865320901        1.6547670816       -9.8779011846  MEMB      159             0.0000000000
     19707       159  PMPG      H8R            35.5797669233        1.2649632350       -9.3678507802  MEMB      159             0.0000000000
     19708       159  PMPG      H8S            36.1698871042        2.5677605721      -10.4260799298  MEMB      159             0.0000000000
     19709       159  PMPG      C29            37.5289771398        1.9681972857       -8.7780783544  MEMB      159             0.0000000000
     19710       159  PMPG      H9R            38.3535401092        2.7021540208       -8.9034754642  MEMB      159             0.0000000000
     19711       159  PMPG      C217           36.8922105764        1.9166185516       -7.3580745008  MEMB      159             0.0000000000
     19712       159  PMPG      H17R           37.3318655835        2.6377822657       -6.6801984012  MEMB      159             0.0000000000
     19713       159  PMPG      H17S           35.8686973114        1.5717962780       -7.2780298901  MEMB      159             0.0000000000
     19714       159  PMPG      C210           37.9524963260        0.8887333998       -7.8155823718  MEMB      159             0.0000000000
     19715       159  PMPG      H10R           38.9842017016        0.9970347213       -7.4178692338  MEMB      159             0.0000000000
     19716       159  PMPG      C211           37.3390075528       -0.5508657765       -7.8916995951  MEMB      159             0.0000000000
     19717       159  PMPG      H11R           36.2299804474       -0.4938876917       -7.8580360748  MEMB      159             0.0000000000
     19718       159  PMPG      H11S           37.6501168584       -1.0341432948       -8.8424754274  MEMB      159             0.0000000000
     19719       159  PMPG      C212           37.9227341396       -1.4045470332       -6.7685766251  MEMB      159             0.0000000000
     19720       159  PMPG      H12R           39.0320268205       -1.3708482347       -6.7170482032  MEMB      159             0.0000000000
     19721       159  PMPG      H12S           37.6949357095       -2.4804152590       -6.9264891042  MEMB      159             0.0000000000
     19722       159  PMPG      C213           37.3884919643       -0.9393691826       -5.4118152773  MEMB      159             0.0000000000
     19723       159  PMPG      H13R           36.3316279568       -0.6053800044       -5.3355864224  MEMB      159             0.0000000000
     19724       159  PMPG      H13S           38.0025127653       -0.0546985200       -5.1385802678  MEMB      159             0.0000000000
     19725       159  PMPG      C214           37.6343753367       -1.9445983419       -4.3453877551  MEMB      159             0.0000000000
     19726       159  PMPG      H14R           38.7306148269       -2.0327828630       -4.1878957033  MEMB      159             0.0000000000
     19727       159  PMPG      H14S           37.1717949692       -2.9284051239       -4.5744400553  MEMB      159             0.0000000000
     19728       159  PMPG      C215           36.9008910109       -1.4537868178       -3.1269492927  MEMB      159             0.0000000000
     19729       159  PMPG      H15R           37.0284360331       -2.1661271014       -2.2839649457  MEMB      159             0.0000000000
     19730       159  PMPG      H15S           35.7985015323       -1.4401372070       -3.2643260876  MEMB      159             0.0000000000
     19731       159  PMPG      C216           37.4179162316       -0.2047931747       -2.4264588788  MEMB      159             0.0000000000
     19732       159  PMPG      H16R           36.8253755836        0.6450936279       -2.8275920657  MEMB      159             0.0000000000
     19733       159  PMPG      H16S           38.4606160846       -0.0384781133       -2.7720559834  MEMB      159             0.0000000000
     19734       159  PMPG      H16T           37.3373474492       -0.1035197247       -1.3230209805  MEMB      159             0.0000000000
     19735       159  PMPG      C33            36.0541155620        5.4684231315      -12.1901263587  MEMB      159             0.0000000000
     19736       159  PMPG      H3X            36.7219449838        6.3444640526      -12.3346172351  MEMB      159             0.0000000000
     19737       159  PMPG      H3Y            36.5646533628        4.9289735151      -11.3638906370  MEMB      159             0.0000000000
     19738       159  PMPG      C34            34.7188930099        6.0430246258      -11.6997346990  MEMB      159             0.0000000000
     19739       159  PMPG      H4X            34.0407789881        5.1943705919      -11.4667780540  MEMB      159             0.0000000000
     19740       159  PMPG      H4Y            34.1459507117        6.5690422792      -12.4930592068  MEMB      159             0.0000000000
     19741       159  PMPG      C35            35.0131263671        6.8878660426      -10.4980598926  MEMB      159             0.0000000000
     19742       159  PMPG      H5X            34.0770921810        7.4412149474      -10.2700992853  MEMB      159             0.0000000000
     19743       159  PMPG      H5Y            35.8360700671        7.5833906338      -10.7688545368  MEMB      159             0.0000000000
     19744       159  PMPG      C36            35.3329991912        6.1161977155       -9.2262964467  MEMB      159             0.0000000000
     19745       159  PMPG      H6X            36.2636348179        5.5477036252       -9.4385530059  MEMB      159             0.0000000000
     19746       159  PMPG      H6Y            34.4400664794        5.4693137215       -9.0901592912  MEMB      159             0.0000000000
     19747       159  PMPG      C37            35.4885854626        7.0607317716       -7.9863162864  MEMB      159             0.0000000000
     19748       159  PMPG      H7X            34.6333199460        7.7696346150       -8.0035941201  MEMB      159             0.0000000000
     19749       159  PMPG      H7Y            36.4610219268        7.5665656658       -8.1674802119  MEMB      159             0.0000000000
     19750       159  PMPG      C38            35.4314646970        6.2190524635       -6.7065223820  MEMB      159             0.0000000000
     19751       159  PMPG      H8X            35.6515962384        6.9461342352       -5.8958340740  MEMB      159             0.0000000000
     19752       159  PMPG      H8Y            36.2956134588        5.5208622375       -6.6966045920  MEMB      159             0.0000000000
     19753       159  PMPG      C39            34.0814841974        5.4769272064       -6.3824878501  MEMB      159             0.0000000000
     19754       159  PMPG      H9X            33.9869174787        4.5360674988       -6.9657210153  MEMB      159             0.0000000000
     19755       159  PMPG      H9Y            33.1957081884        6.0302653426       -6.7613534560  MEMB      159             0.0000000000
     19756       159  PMPG      C310           33.8708247368        4.9943612466       -4.9426708901  MEMB      159             0.0000000000
     19757       159  PMPG      H10X           32.7606715699        5.0150936324       -4.9045813315  MEMB      159             0.0000000000
     19758       159  PMPG      H10Y           34.2717235007        5.7671041003       -4.2524033009  MEMB      159             0.0000000000
     19759       159  PMPG      C311           34.4369971158        3.6670512803       -4.6543672157  MEMB      159             0.0000000000
     19760       159  PMPG      H11X           35.5308666438        3.8593181291       -4.6827197242  MEMB      159             0.0000000000
     19761       159  PMPG      H11Y           34.1724738255        3.0413876156       -5.5335112651  MEMB      159             0.0000000000
     19762       159  PMPG      C312           33.9177895631        3.0564283485       -3.3733190324  MEMB      159             0.0000000000
     19763       159  PMPG      H12X           34.2656247015        2.0013125722       -3.3654283812  MEMB      159             0.0000000000
     19764       159  PMPG      H12Y           32.8073590318        3.0887838972       -3.3585461539  MEMB      159             0.0000000000
     19765       159  PMPG      C313           34.4563895015        3.6624769922       -2.1013940209  MEMB      159             0.0000000000
     19766       159  PMPG      H13X           34.3888230019        4.7651151173       -2.2194842111  MEMB      159             0.0000000000
     19767       159  PMPG      H13Y           35.4884799689        3.2995752041       -1.9079712254  MEMB      159             0.0000000000
     19768       159  PMPG      C314           33.5521948338        3.2283310670       -0.9192096297  MEMB      159             0.0000000000
     19769       159  PMPG      H14X           33.4440593020        2.1256702254       -0.8369462796  MEMB      159             0.0000000000
     19770       159  PMPG      H14Y           32.5008264063        3.5867850888       -0.9405387139  MEMB      159             0.0000000000
     19771       159  PMPG      C315           34.1166816647        3.6611699208        0.4230985618  MEMB      159             0.0000000000
     19772       159  PMPG      H15X           35.1122479200        3.1992651651        0.5957636398  MEMB      159             0.0000000000
     19773       159  PMPG      H15Y           33.3621385452        3.2762301037        1.1419922959  MEMB      159             0.0000000000
     19774       159  PMPG      C316           34.2277343382        5.1923413168        0.7588293198  MEMB      159             0.0000000000
     19775       159  PMPG      H16X           35.0042107128        5.2594263999        1.5506024930  MEMB      159             0.0000000000
     19776       159  PMPG      H16Y           33.2605024368        5.5461969898        1.1754469549  MEMB      159             0.0000000000
     19777       159  PMPG      H16Z           34.4337327885        5.8118435029       -0.1401161466  MEMB      159             0.0000000000
     19778       160  OYPE      N              20.4197686512      -29.9151183230      -17.2746384810  MEMB      160             0.0000000000
     19779       160  OYPE      HN1            19.5985244699      -29.5950149852      -16.7226491855  MEMB      160             0.0000000000
     19780       160  OYPE      HN2            20.3992004006      -30.9511558087      -17.3629753585  MEMB      160             0.0000000000
     19781       160  OYPE      HN3            21.2171843318      -29.4700075849      -16.7770396333  MEMB      160             0.0000000000
     19782       160  OYPE      C12            20.3948399443      -29.3142939002      -18.6379964532  MEMB      160             0.0000000000
     19783       160  OYPE      H12A           19.4991674113      -29.6884680712      -19.1784455481  MEMB      160             0.0000000000
     19784       160  OYPE      H12B           21.3291317409      -29.6988568879      -19.1000909133  MEMB      160             0.0000000000
     19785       160  OYPE      C11            20.2263725497      -27.8121710948      -18.6674324779  MEMB      160             0.0000000000
     19786       160  OYPE      H11A           19.4874411128      -27.5484577322      -17.8808215885  MEMB      160             0.0000000000
     19787       160  OYPE      H11B           19.7857236778      -27.5417754443      -19.6508122734  MEMB      160             0.0000000000
     19788       160  OYPE      P              22.4856040116      -26.8041692338      -19.5836395525  MEMB      160             0.0000000000
     19789       160  OYPE      O13            22.4619483303      -25.3236395460      -19.8698334498  MEMB      160             0.0000000000
     19790       160  OYPE      O14            22.4247106587      -27.7451883832      -20.6724777795  MEMB      160             0.0000000000
     19791       160  OYPE      O11            23.8509993531      -27.1306060036      -18.8203164152  MEMB      160             0.0000000000
     19792       160  OYPE      O12            21.4290050289      -27.1811395977      -18.4736653600  MEMB      160             0.0000000000
     19793       160  OYPE      C1             24.1874525739      -28.5508818670      -18.6678477593  MEMB      160             0.0000000000
     19794       160  OYPE      HA             24.7652856673      -28.8070163296      -19.5815353427  MEMB      160             0.0000000000
     19795       160  OYPE      HB             23.3156041104      -29.2393102770      -18.6514942524  MEMB      160             0.0000000000
     19796       160  OYPE      C2             25.0704403910      -28.7985303734      -17.4527946590  MEMB      160             0.0000000000
     19797       160  OYPE      HS             25.5182586189      -29.8105329401      -17.5509305134  MEMB      160             0.0000000000
     19798       160  OYPE      O21            24.2352163929      -28.9170427541      -16.2597399667  MEMB      160             0.0000000000
     19799       160  OYPE      C21            23.8228814560      -30.1641846172      -15.8562492322  MEMB      160             0.0000000000
     19800       160  OYPE      O22            23.6244742949      -31.1151911961      -16.5603670487  MEMB      160             0.0000000000
     19801       160  OYPE      C22            23.4635657793      -30.1050846996      -14.3163070200  MEMB      160             0.0000000000
     19802       160  OYPE      H2R            22.6370431240      -30.8233954444      -14.1286604536  MEMB      160             0.0000000000
     19803       160  OYPE      H2S            23.2473548676      -29.0527825877      -14.0330512187  MEMB      160             0.0000000000
     19804       160  OYPE      C3             26.2224926563      -27.7920772947      -17.1570016683  MEMB      160             0.0000000000
     19805       160  OYPE      HX             26.5085198963      -27.2872573356      -18.1044540145  MEMB      160             0.0000000000
     19806       160  OYPE      HY             27.0878149571      -28.3309750731      -16.7152697440  MEMB      160             0.0000000000
     19807       160  OYPE      O31            25.7557105697      -26.7662354862      -16.2814139089  MEMB      160             0.0000000000
     19808       160  OYPE      C31            26.1304353760      -26.7747209688      -14.9804684558  MEMB      160             0.0000000000
     19809       160  OYPE      O32            26.8082380239      -27.6021955394      -14.3787240366  MEMB      160             0.0000000000
     19810       160  OYPE      C32            25.7345388079      -25.3881103928      -14.4071008085  MEMB      160             0.0000000000
     19811       160  OYPE      H2X            26.6781268867      -24.8256824557      -14.2408552534  MEMB      160             0.0000000000
     19812       160  OYPE      H2Y            25.0198101818      -24.7993183864      -15.0209476464  MEMB      160             0.0000000000
     19813       160  OYPE      C23            24.6234110874      -30.4936778883      -13.3644369820  MEMB      160             0.0000000000
     19814       160  OYPE      H3R            25.5901533051      -30.4508295648      -13.9102343724  MEMB      160             0.0000000000
     19815       160  OYPE      H3S            24.3962683678      -31.5502004087      -13.1065855300  MEMB      160             0.0000000000
     19816       160  OYPE      C24            24.7439892426      -29.6680013518      -12.0679283311  MEMB      160             0.0000000000
     19817       160  OYPE      H4R            23.7233138361      -29.5048716650      -11.6605814306  MEMB      160             0.0000000000
     19818       160  OYPE      H4S            25.0464665646      -28.6275893899      -12.3136342829  MEMB      160             0.0000000000
     19819       160  OYPE      C25            25.7856914273      -30.1792602928      -11.0176657399  MEMB      160             0.0000000000
     19820       160  OYPE      H5R            25.9347620233      -29.3808750308      -10.2595893323  MEMB      160             0.0000000000
     19821       160  OYPE      H5S            26.8091257030      -30.2095194420      -11.4489290200  MEMB      160             0.0000000000
     19822       160  OYPE      C26            25.4013077541      -31.4807767330      -10.2963089848  MEMB      160             0.0000000000
     19823       160  OYPE      H6R            25.3593879819      -32.2645186713      -11.0826376226  MEMB      160             0.0000000000
     19824       160  OYPE      H6S            24.3831890316      -31.2869173678       -9.8960918660  MEMB      160             0.0000000000
     19825       160  OYPE      C27            26.4249851978      -31.7766560951       -9.1107134604  MEMB      160             0.0000000000
     19826       160  OYPE      H7R            26.5771488050      -30.9230498093       -8.4160748683  MEMB      160             0.0000000000
     19827       160  OYPE      H7S            27.4621741484      -31.9682002237       -9.4598140839  MEMB      160             0.0000000000
     19828       160  OYPE      C28            25.9442329830      -33.0239643444       -8.3051221018  MEMB      160             0.0000000000
     19829       160  OYPE      H8R            26.7939343964      -33.1381448175       -7.5985162330  MEMB      160             0.0000000000
     19830       160  OYPE      H8S            26.0344670426      -33.8893576144       -8.9959711196  MEMB      160             0.0000000000
     19831       160  OYPE      C29            24.6044089870      -33.0531965863       -7.7669504528  MEMB      160             0.0000000000
     19832       160  OYPE      H9R            23.9981575527      -33.7719381485       -8.3378009163  MEMB      160             0.0000000000
     19833       160  OYPE      C210           24.1444610366      -32.4487831605       -6.6232354503  MEMB      160             0.0000000000
     19834       160  OYPE      H10R           23.1219737618      -32.7188587243       -6.3206157625  MEMB      160             0.0000000000
     19835       160  OYPE      C211           24.9584636771      -31.6174124892       -5.6677068030  MEMB      160             0.0000000000
     19836       160  OYPE      H11R           24.6607491693      -30.5738418327       -5.4296996494  MEMB      160             0.0000000000
     19837       160  OYPE      H11S           26.0466145103      -31.5526077799       -5.8822974732  MEMB      160             0.0000000000
     19838       160  OYPE      C212           24.9311417544      -32.1903359004       -4.1781072303  MEMB      160             0.0000000000
     19839       160  OYPE      H12R           25.3019866096      -33.2372381124       -4.2062338692  MEMB      160             0.0000000000
     19840       160  OYPE      H12S           23.8650719720      -32.2857109836       -3.8802485506  MEMB      160             0.0000000000
     19841       160  OYPE      C213           25.7063479294      -31.3960294965       -3.1765956778  MEMB      160             0.0000000000
     19842       160  OYPE      H13R           25.9330487207      -32.0240622170       -2.2886193031  MEMB      160             0.0000000000
     19843       160  OYPE      H13S           25.0879427278      -30.6037787868       -2.7030611136  MEMB      160             0.0000000000
     19844       160  OYPE      C214           26.9705019926      -30.7870293848       -3.7907281802  MEMB      160             0.0000000000
     19845       160  OYPE      H14R           26.7259685153      -30.0877803524       -4.6187213203  MEMB      160             0.0000000000
     19846       160  OYPE      H14S           27.5939827388      -31.5500020915       -4.3040161923  MEMB      160             0.0000000000
     19847       160  OYPE      C215           28.0300973392      -30.1973161758       -2.8504649732  MEMB      160             0.0000000000
     19848       160  OYPE      H15R           27.5573829619      -29.6696018704       -1.9946724800  MEMB      160             0.0000000000
     19849       160  OYPE      H15S           28.6425394451      -29.4441634084       -3.3908313641  MEMB      160             0.0000000000
     19850       160  OYPE      C216           29.0039371552      -31.0839976124       -2.2162661557  MEMB      160             0.0000000000
     19851       160  OYPE      H16R           28.4034100878      -31.7769070159       -1.5889178233  MEMB      160             0.0000000000
     19852       160  OYPE      H16S           29.7315308754      -30.5574944765       -1.5622596808  MEMB      160             0.0000000000
     19853       160  OYPE      H16T           29.6237931964      -31.7042911173       -2.8984201936  MEMB      160             0.0000000000
     19854       160  OYPE      C33            25.0526237293      -25.8267932007      -13.1081347321  MEMB      160             0.0000000000
     19855       160  OYPE      H3X            25.2119021302      -25.0914594001      -12.2906778362  MEMB      160             0.0000000000
     19856       160  OYPE      H3Y            25.4759802233      -26.7124737748      -12.5878841760  MEMB      160             0.0000000000
     19857       160  OYPE      C34            23.5233549110      -26.0866794514      -13.3766251151  MEMB      160             0.0000000000
     19858       160  OYPE      H4X            23.0525007112      -25.2021405907      -13.8564254182  MEMB      160             0.0000000000
     19859       160  OYPE      H4Y            23.3451607856      -26.9205331955      -14.0888442408  MEMB      160             0.0000000000
     19860       160  OYPE      C35            22.7995590915      -26.3490815992      -12.0231155385  MEMB      160             0.0000000000
     19861       160  OYPE      H5X            23.1562330182      -25.5225357899      -11.3720190152  MEMB      160             0.0000000000
     19862       160  OYPE      H5Y            23.1382284031      -27.3178232570      -11.5974820627  MEMB      160             0.0000000000
     19863       160  OYPE      C36            21.2715855501      -26.3621144042      -12.0965572560  MEMB      160             0.0000000000
     19864       160  OYPE      H6X            21.0618695419      -25.3242400314      -12.4329456844  MEMB      160             0.0000000000
     19865       160  OYPE      H6Y            20.8143746582      -27.2022449299      -12.6617652797  MEMB      160             0.0000000000
     19866       160  OYPE      C37            20.6259137274      -26.5222879968      -10.6882594811  MEMB      160             0.0000000000
     19867       160  OYPE      H7X            20.8379482852      -25.6195089265      -10.0764157491  MEMB      160             0.0000000000
     19868       160  OYPE      H7Y            19.5154369360      -26.5563644031      -10.6873036085  MEMB      160             0.0000000000
     19869       160  OYPE      C38            21.0675224689      -27.8139859109       -9.9275644771  MEMB      160             0.0000000000
     19870       160  OYPE      H8X            22.1599061979      -27.9700967813      -10.0565921918  MEMB      160             0.0000000000
     19871       160  OYPE      H8Y            20.9685429144      -27.5835522658       -8.8452406543  MEMB      160             0.0000000000
     19872       160  OYPE      C39            20.2737493322      -29.0426147012      -10.3660353302  MEMB      160             0.0000000000
     19873       160  OYPE      H9X            20.6325706782      -29.4466965824      -11.3241402585  MEMB      160             0.0000000000
     19874       160  OYPE      C310           19.1765511486      -29.5683261859       -9.7085997727  MEMB      160             0.0000000000
     19875       160  OYPE      H10X           18.7686511744      -30.4736413150      -10.1819103815  MEMB      160             0.0000000000
     19876       160  OYPE      C311           18.5237854352      -29.0520810374       -8.4031782638  MEMB      160             0.0000000000
     19877       160  OYPE      H11X           18.9388942326      -28.0496221167       -8.1642603736  MEMB      160             0.0000000000
     19878       160  OYPE      H11Y           17.4419389588      -28.8631640886       -8.5712244718  MEMB      160             0.0000000000
     19879       160  OYPE      C312           18.7560504979      -30.0091181281       -7.2323893284  MEMB      160             0.0000000000
     19880       160  OYPE      H12X           18.4439289833      -31.0127258776       -7.5924903119  MEMB      160             0.0000000000
     19881       160  OYPE      H12Y           18.0499110172      -29.6615888609       -6.4482266327  MEMB      160             0.0000000000
     19882       160  OYPE      C313           20.0885162544      -30.0251605362       -6.4903266639  MEMB      160             0.0000000000
     19883       160  OYPE      H13X           20.1358515370      -30.7494146705       -5.6491745969  MEMB      160             0.0000000000
     19884       160  OYPE      H13Y           20.8375215531      -30.3067573717       -7.2610502372  MEMB      160             0.0000000000
     19885       160  OYPE      C314           20.4932015618      -28.6747557186       -5.9616601760  MEMB      160             0.0000000000
     19886       160  OYPE      H14X           19.6730009405      -28.2617860736       -5.3363218832  MEMB      160             0.0000000000
     19887       160  OYPE      H14Y           20.6495878338      -27.9937582173       -6.8254345208  MEMB      160             0.0000000000
     19888       160  OYPE      C315           21.6922597953      -28.8096386384       -5.0063554714  MEMB      160             0.0000000000
     19889       160  OYPE      H15X           22.6540929300      -28.7996599183       -5.5623210494  MEMB      160             0.0000000000
     19890       160  OYPE      H15Y           21.5742991041      -29.7411419613       -4.4124629658  MEMB      160             0.0000000000
     19891       160  OYPE      C316           21.7451560491      -27.6188908161       -4.0464555663  MEMB      160             0.0000000000
     19892       160  OYPE      H16X           20.7601795079      -27.5333101463       -3.5396833468  MEMB      160             0.0000000000
     19893       160  OYPE      H16Y           21.9059425603      -26.6462705627       -4.5587832191  MEMB      160             0.0000000000
     19894       160  OYPE      C317           22.8167094572      -27.6955661316       -2.9932810403  MEMB      160             0.0000000000
     19895       160  OYPE      H17X           23.8243889927      -27.8691344743       -3.4277655785  MEMB      160             0.0000000000
     19896       160  OYPE      H17Y           22.7321910513      -28.6023233789       -2.3569100257  MEMB      160             0.0000000000
     19897       160  OYPE      C318           22.8921205953      -26.5010512420       -2.0378743078  MEMB      160             0.0000000000
     19898       160  OYPE      H18X           21.9449662640      -26.4390779308       -1.4604833241  MEMB      160             0.0000000000
     19899       160  OYPE      H18Y           23.8013915599      -26.4125386108       -1.4056443647  MEMB      160             0.0000000000
     19900       160  OYPE      H18Z           22.8420821578      -25.5863058142       -2.6664096234  MEMB      160             0.0000000000
     19901       161  PMPE      N             -33.9723742019       -7.9175447788      -21.5981953163  MEMB      161             0.0000000000
     19902       161  PMPE      HN1           -34.7301625939       -7.2657499151      -21.8854586951  MEMB      161             0.0000000000
     19903       161  PMPE      HN2           -33.3695211464       -8.1960062859      -22.3985871695  MEMB      161             0.0000000000
     19904       161  PMPE      HN3           -34.4843233462       -8.7534737303      -21.2507318182  MEMB      161             0.0000000000
     19905       161  PMPE      C12           -33.1919695241       -7.3230311670      -20.4835995002  MEMB      161             0.0000000000
     19906       161  PMPE      H12A          -32.7638820074       -6.3740913145      -20.8716397362  MEMB      161             0.0000000000
     19907       161  PMPE      H12B          -32.3806339469       -8.0616101145      -20.3087948516  MEMB      161             0.0000000000
     19908       161  PMPE      C11           -34.0576996728       -6.9674686147      -19.2460353458  MEMB      161             0.0000000000
     19909       161  PMPE      H11A          -34.5684018899       -6.0226714154      -19.5303983665  MEMB      161             0.0000000000
     19910       161  PMPE      H11B          -33.2958717860       -6.7192925376      -18.4763940093  MEMB      161             0.0000000000
     19911       161  PMPE      P             -34.2156235766       -9.2799461832      -18.1323803369  MEMB      161             0.0000000000
     19912       161  PMPE      O13           -33.1463861720       -8.7875761634      -17.2424746171  MEMB      161             0.0000000000
     19913       161  PMPE      O14           -33.9084797739      -10.3125249010      -19.1555465086  MEMB      161             0.0000000000
     19914       161  PMPE      O11           -35.4776080288       -9.7722429442      -17.2718597446  MEMB      161             0.0000000000
     19915       161  PMPE      O12           -34.9578758522       -8.0048424475      -18.8699086643  MEMB      161             0.0000000000
     19916       161  PMPE      C1            -36.7150891819       -9.1113354412      -17.3397921149  MEMB      161             0.0000000000
     19917       161  PMPE      HA            -37.1135152525       -9.0790694263      -18.3763906344  MEMB      161             0.0000000000
     19918       161  PMPE      HB            -36.5313804218       -8.1351987166      -16.8420680102  MEMB      161             0.0000000000
     19919       161  PMPE      C2            -37.7782159029       -9.9305528807      -16.5102961633  MEMB      161             0.0000000000
     19920       161  PMPE      HS            -38.7536470035       -9.4446457661      -16.7265117548  MEMB      161             0.0000000000
     19921       161  PMPE      O21           -37.6431315917       -9.8769580678      -15.0350375147  MEMB      161             0.0000000000
     19922       161  PMPE      C21           -38.3257448142       -8.8334850511      -14.4498090448  MEMB      161             0.0000000000
     19923       161  PMPE      O22           -38.9712373474       -7.9823482271      -15.0138031706  MEMB      161             0.0000000000
     19924       161  PMPE      C22           -38.1330358506       -8.8836577870      -12.9223825845  MEMB      161             0.0000000000
     19925       161  PMPE      H2R           -37.0924007120       -8.5792442847      -12.6800353908  MEMB      161             0.0000000000
     19926       161  PMPE      H2S           -38.3720138493       -9.9114245689      -12.5746673151  MEMB      161             0.0000000000
     19927       161  PMPE      C3            -37.9240081948      -11.4627173037      -16.8275553249  MEMB      161             0.0000000000
     19928       161  PMPE      HX            -38.1903336786      -11.5980403766      -17.8976390429  MEMB      161             0.0000000000
     19929       161  PMPE      HY            -38.8702080419      -11.7362769852      -16.3135591959  MEMB      161             0.0000000000
     19930       161  PMPE      O31           -36.7284969061      -12.1899045675      -16.3828299669  MEMB      161             0.0000000000
     19931       161  PMPE      C31           -36.8584381864      -12.8190110845      -15.1734937881  MEMB      161             0.0000000000
     19932       161  PMPE      O32           -37.8280043316      -12.6899357899      -14.5180016855  MEMB      161             0.0000000000
     19933       161  PMPE      C32           -35.5620029469      -13.3828007448      -14.6782913888  MEMB      161             0.0000000000
     19934       161  PMPE      H2X           -35.2141387586      -14.1799944008      -15.3695175248  MEMB      161             0.0000000000
     19935       161  PMPE      H2Y           -35.6997296954      -13.8074097039      -13.6609124204  MEMB      161             0.0000000000
     19936       161  PMPE      C23           -39.0095565071       -7.9192880856      -12.1166549519  MEMB      161             0.0000000000
     19937       161  PMPE      H3R           -39.9273473736       -8.5445818302      -12.1480901568  MEMB      161             0.0000000000
     19938       161  PMPE      H3S           -39.3320577736       -6.9959740381      -12.6437270695  MEMB      161             0.0000000000
     19939       161  PMPE      C24           -38.4843375567       -7.5451750943      -10.7058071474  MEMB      161             0.0000000000
     19940       161  PMPE      H4R           -37.4972199817       -7.0353850110      -10.6999811726  MEMB      161             0.0000000000
     19941       161  PMPE      H4S           -38.3398205158       -8.5722835676      -10.3077065773  MEMB      161             0.0000000000
     19942       161  PMPE      C25           -39.4867113417       -6.8989059689       -9.7375641230  MEMB      161             0.0000000000
     19943       161  PMPE      H5R           -39.1831433407       -7.0306058537       -8.6769878333  MEMB      161             0.0000000000
     19944       161  PMPE      H5S           -40.3858196776       -7.4838166165      -10.0270550025  MEMB      161             0.0000000000
     19945       161  PMPE      C26           -39.7813743501       -5.4297075427       -9.9778340704  MEMB      161             0.0000000000
     19946       161  PMPE      H6R           -40.6432460575       -5.1663775643       -9.3280993679  MEMB      161             0.0000000000
     19947       161  PMPE      H6S           -40.1781275407       -5.4009071996      -11.0151758557  MEMB      161             0.0000000000
     19948       161  PMPE      C27           -38.4885215387       -4.5136636398       -9.8179305160  MEMB      161             0.0000000000
     19949       161  PMPE      H7R           -38.8206764029       -3.5096871576      -10.1585560116  MEMB      161             0.0000000000
     19950       161  PMPE      H7S           -37.7587757428       -4.9592973959      -10.5272976806  MEMB      161             0.0000000000
     19951       161  PMPE      C28           -37.9992319856       -4.3063166953       -8.3429950334  MEMB      161             0.0000000000
     19952       161  PMPE      H8R           -37.4391876986       -5.2493229583       -8.1657646745  MEMB      161             0.0000000000
     19953       161  PMPE      H8S           -38.8380051014       -4.2026515228       -7.6218610456  MEMB      161             0.0000000000
     19954       161  PMPE      C29           -37.1952742775       -3.0375106475       -8.3462224258  MEMB      161             0.0000000000
     19955       161  PMPE      H9R           -37.6394518983       -2.1387352166       -8.8250023814  MEMB      161             0.0000000000
     19956       161  PMPE      C217          -35.8447717240       -3.2759863925       -9.0431812209  MEMB      161             0.0000000000
     19957       161  PMPE      H17R          -35.5978241706       -2.3819405022       -9.6022767901  MEMB      161             0.0000000000
     19958       161  PMPE      H17S          -35.6327815343       -4.2595863124       -9.4437814106  MEMB      161             0.0000000000
     19959       161  PMPE      C210          -35.9429641325       -2.9412730058       -7.5308575319  MEMB      161             0.0000000000
     19960       161  PMPE      H10R          -35.4767558344       -1.9436326346       -7.3836016008  MEMB      161             0.0000000000
     19961       161  PMPE      C211          -35.5268581662       -4.0945943069       -6.6945907619  MEMB      161             0.0000000000
     19962       161  PMPE      H11R          -34.4940946799       -3.8878846845       -6.3410492692  MEMB      161             0.0000000000
     19963       161  PMPE      H11S          -35.6218923873       -4.9847337414       -7.3525743841  MEMB      161             0.0000000000
     19964       161  PMPE      C212          -36.4114450575       -4.3061484099       -5.4305555133  MEMB      161             0.0000000000
     19965       161  PMPE      H12R          -37.3465846563       -4.7468407601       -5.8375267497  MEMB      161             0.0000000000
     19966       161  PMPE      H12S          -36.4948153317       -3.2791102578       -5.0151496738  MEMB      161             0.0000000000
     19967       161  PMPE      C213          -35.8257746006       -5.2745008187       -4.4590151823  MEMB      161             0.0000000000
     19968       161  PMPE      H13R          -34.8017330691       -4.9835472334       -4.1412009845  MEMB      161             0.0000000000
     19969       161  PMPE      H13S          -35.7731368142       -6.2554023792       -4.9780355633  MEMB      161             0.0000000000
     19970       161  PMPE      C214          -36.7645699943       -5.3746277734       -3.2874666245  MEMB      161             0.0000000000
     19971       161  PMPE      H14R          -37.8293014095       -5.6082520284       -3.5021471351  MEMB      161             0.0000000000
     19972       161  PMPE      H14S          -36.7222400906       -4.3540248866       -2.8505474458  MEMB      161             0.0000000000
     19973       161  PMPE      C215          -36.2308617526       -6.2669245429       -2.1375747567  MEMB      161             0.0000000000
     19974       161  PMPE      H15R          -35.2112124060       -5.9901681768       -1.7940019488  MEMB      161             0.0000000000
     19975       161  PMPE      H15S          -35.9867618453       -7.2528868717       -2.5877020997  MEMB      161             0.0000000000
     19976       161  PMPE      C216          -37.2016949178       -6.4035433377       -0.9192283216  MEMB      161             0.0000000000
     19977       161  PMPE      H16R          -36.6836201238       -6.8196123608       -0.0288315303  MEMB      161             0.0000000000
     19978       161  PMPE      H16S          -37.7259498222       -5.4492288100       -0.6984067936  MEMB      161             0.0000000000
     19979       161  PMPE      H16T          -37.8756912292       -7.2282905442       -1.2352050447  MEMB      161             0.0000000000
     19980       161  PMPE      C33           -34.3464227243      -12.4600999790      -14.5559647149  MEMB      161             0.0000000000
     19981       161  PMPE      H3X           -33.9049719451      -12.0078293582      -15.4696897998  MEMB      161             0.0000000000
     19982       161  PMPE      H3Y           -33.5922106877      -13.2176009534      -14.2531812752  MEMB      161             0.0000000000
     19983       161  PMPE      C34           -34.5512588673      -11.4162629072      -13.4860003591  MEMB      161             0.0000000000
     19984       161  PMPE      H4X           -34.6472236609      -11.9769539014      -12.5316747863  MEMB      161             0.0000000000
     19985       161  PMPE      H4Y           -35.4136498641      -10.7237835555      -13.5912388461  MEMB      161             0.0000000000
     19986       161  PMPE      C35           -33.2790088263      -10.6454795739      -13.1575011422  MEMB      161             0.0000000000
     19987       161  PMPE      H5X           -33.0885106851       -9.8269269353      -13.8841392999  MEMB      161             0.0000000000
     19988       161  PMPE      H5Y           -32.4626587234      -11.3932041021      -13.2513176563  MEMB      161             0.0000000000
     19989       161  PMPE      C36           -33.3561165288       -9.9543983992      -11.8137258078  MEMB      161             0.0000000000
     19990       161  PMPE      H6X           -32.3626482667       -9.8364116307      -11.3305896193  MEMB      161             0.0000000000
     19991       161  PMPE      H6Y           -33.9668978190      -10.5864187997      -11.1341541229  MEMB      161             0.0000000000
     19992       161  PMPE      C37           -33.9310051181       -8.5623839703      -11.8677359938  MEMB      161             0.0000000000
     19993       161  PMPE      H7X           -35.0263074033       -8.7232470318      -11.9613146499  MEMB      161             0.0000000000
     19994       161  PMPE      H7Y           -33.4888328481       -7.9703667971      -12.6973869823  MEMB      161             0.0000000000
     19995       161  PMPE      C38           -33.7361436639       -7.7085254807      -10.6772710237  MEMB      161             0.0000000000
     19996       161  PMPE      H8X           -34.2007173118       -6.7118138071      -10.8355689408  MEMB      161             0.0000000000
     19997       161  PMPE      H8Y           -32.6475925223       -7.6090546551      -10.4785674117  MEMB      161             0.0000000000
     19998       161  PMPE      C39           -34.2665944249       -8.1866561514       -9.2948476604  MEMB      161             0.0000000000
     19999       161  PMPE      H9X           -34.0536636563       -9.2702858124       -9.1734879866  MEMB      161             0.0000000000
     20000       161  PMPE      H9Y           -35.3421181382       -8.0267419266       -9.0668184142  MEMB      161             0.0000000000
     20001       161  PMPE      C310          -33.5035895365       -7.4826309836       -8.1373816663  MEMB      161             0.0000000000
     20002       161  PMPE      H10X          -33.5102888822       -6.3932108673       -8.3551890323  MEMB      161             0.0000000000
     20003       161  PMPE      H10Y          -32.4330949863       -7.7719052365       -8.0689486190  MEMB      161             0.0000000000
     20004       161  PMPE      C311          -34.0336550288       -7.8013798793       -6.7046317127  MEMB      161             0.0000000000
     20005       161  PMPE      H11X          -35.1371847517       -7.9294963971       -6.6932632832  MEMB      161             0.0000000000
     20006       161  PMPE      H11Y          -33.8460359147       -6.9270427026       -6.0453476915  MEMB      161             0.0000000000
     20007       161  PMPE      C312          -33.3922748249       -9.0262135928       -5.9373350040  MEMB      161             0.0000000000
     20008       161  PMPE      H12X          -32.3136086717       -8.8989121285       -5.7036792350  MEMB      161             0.0000000000
     20009       161  PMPE      H12Y          -33.4563790658       -9.9011768614       -6.6189872981  MEMB      161             0.0000000000
     20010       161  PMPE      C313          -34.1806127080       -9.3693232121       -4.5983244530  MEMB      161             0.0000000000
     20011       161  PMPE      H13X          -34.4775295481       -8.4159863998       -4.1111790233  MEMB      161             0.0000000000
     20012       161  PMPE      H13Y          -33.4370302467       -9.9065810389       -3.9716190095  MEMB      161             0.0000000000
     20013       161  PMPE      C314          -35.2894066670      -10.3458109814       -4.7495370522  MEMB      161             0.0000000000
     20014       161  PMPE      H14X          -35.0646649807      -11.0637653620       -5.5670656743  MEMB      161             0.0000000000
     20015       161  PMPE      H14Y          -36.1263383086       -9.7749409698       -5.2055782994  MEMB      161             0.0000000000
     20016       161  PMPE      C315          -35.6180681188      -11.0330958563       -3.4247885766  MEMB      161             0.0000000000
     20017       161  PMPE      H15X          -34.7833039855      -11.6142757540       -2.9778887918  MEMB      161             0.0000000000
     20018       161  PMPE      H15Y          -36.4903007563      -11.6870421757       -3.6389975624  MEMB      161             0.0000000000
     20019       161  PMPE      C316          -36.1092886754      -10.0960721540       -2.3219759649  MEMB      161             0.0000000000
     20020       161  PMPE      H16X          -35.1869807910       -9.5502302150       -2.0291872716  MEMB      161             0.0000000000
     20021       161  PMPE      H16Y          -36.4985128216      -10.6656169834       -1.4510891411  MEMB      161             0.0000000000
     20022       161  PMPE      H16Z          -36.9215371192       -9.3896994600       -2.5969511461  MEMB      161             0.0000000000
     20023       162  QMPE      N             -12.3555437216      -32.6218419356      -21.9590091740  MEMB      162             0.0000000000
     20024       162  QMPE      HN1           -13.0841690731      -32.1432216049      -22.5261316753  MEMB      162             0.0000000000
     20025       162  QMPE      HN2           -11.7822915984      -31.8923422332      -21.4891027204  MEMB      162             0.0000000000
     20026       162  QMPE      HN3           -11.8325029871      -33.3966804793      -22.4146995584  MEMB      162             0.0000000000
     20027       162  QMPE      C12           -13.1585509079      -33.2124506943      -20.7611112076  MEMB      162             0.0000000000
     20028       162  QMPE      H12A          -13.9758817709      -33.8401535382      -21.1761781140  MEMB      162             0.0000000000
     20029       162  QMPE      H12B          -13.5186478084      -32.3287324316      -20.1921707008  MEMB      162             0.0000000000
     20030       162  QMPE      C11           -12.3454665126      -34.0377311180      -19.7546807261  MEMB      162             0.0000000000
     20031       162  QMPE      H11A          -11.9661761927      -34.9754855959      -20.2141111288  MEMB      162             0.0000000000
     20032       162  QMPE      H11B          -13.0633147794      -34.3669102366      -18.9732358739  MEMB      162             0.0000000000
     20033       162  QMPE      P             -10.8171389999      -33.2069918558      -17.8377376337  MEMB      162             0.0000000000
     20034       162  QMPE      O13           -11.8976678802      -32.4277337196      -17.1543822815  MEMB      162             0.0000000000
     20035       162  QMPE      O14            -9.4815811403      -32.6071339230      -17.8427580100  MEMB      162             0.0000000000
     20036       162  QMPE      O11           -10.7537420977      -34.6984044944      -17.3938962335  MEMB      162             0.0000000000
     20037       162  QMPE      O12           -11.2755279472      -33.2884546407      -19.2964247297  MEMB      162             0.0000000000
     20038       162  QMPE      C1             -9.5048355100      -35.4544575592      -17.5945803350  MEMB      162             0.0000000000
     20039       162  QMPE      HA             -8.7082204746      -34.9195322491      -18.1545631145  MEMB      162             0.0000000000
     20040       162  QMPE      HB             -9.8122934122      -36.3387332451      -18.1927834832  MEMB      162             0.0000000000
     20041       162  QMPE      C2             -8.9426302306      -35.8992453629      -16.1596419462  MEMB      162             0.0000000000
     20042       162  QMPE      HS             -7.9834899015      -36.4588337083      -16.1947304928  MEMB      162             0.0000000000
     20043       162  QMPE      O21            -9.9563876986      -36.7096323416      -15.4884777955  MEMB      162             0.0000000000
     20044       162  QMPE      C21           -10.0203112281      -37.9130326641      -15.9231634948  MEMB      162             0.0000000000
     20045       162  QMPE      O22            -9.3005637606      -38.4155776471      -16.7533032494  MEMB      162             0.0000000000
     20046       162  QMPE      C22           -11.1560317695      -38.6176259664      -15.2171021342  MEMB      162             0.0000000000
     20047       162  QMPE      H2R           -11.2472556750      -39.7082977527      -15.4079792686  MEMB      162             0.0000000000
     20048       162  QMPE      H2S           -12.1105332523      -38.1662685438      -15.5628252440  MEMB      162             0.0000000000
     20049       162  QMPE      C3             -8.6408348526      -34.6184164892      -15.3036829884  MEMB      162             0.0000000000
     20050       162  QMPE      HX             -9.6353939221      -34.1662449936      -15.1019057833  MEMB      162             0.0000000000
     20051       162  QMPE      HY             -8.0548723625      -33.8976016705      -15.9131048307  MEMB      162             0.0000000000
     20052       162  QMPE      O31            -7.9193427413      -34.9330775644      -14.1119771066  MEMB      162             0.0000000000
     20053       162  QMPE      C31            -7.5754000637      -33.8767296152      -13.3668654493  MEMB      162             0.0000000000
     20054       162  QMPE      O32            -7.8933862908      -32.7169963409      -13.5738100670  MEMB      162             0.0000000000
     20055       162  QMPE      C32            -6.4971991230      -34.3473280928      -12.3610548890  MEMB      162             0.0000000000
     20056       162  QMPE      H2X            -6.3949095406      -35.4485514574      -12.2553900076  MEMB      162             0.0000000000
     20057       162  QMPE      H2Y            -5.4800479281      -34.0156297606      -12.6605554305  MEMB      162             0.0000000000
     20058       162  QMPE      C23           -10.9660627469      -38.4170328352      -13.6547135405  MEMB      162             0.0000000000
     20059       162  QMPE      H3R           -10.6374309513      -37.3766575965      -13.4450917402  MEMB      162             0.0000000000
     20060       162  QMPE      H3S           -10.1873363259      -39.1659682004      -13.3958665140  MEMB      162             0.0000000000
     20061       162  QMPE      C24           -12.2136165303      -38.7070005116      -12.8246590866  MEMB      162             0.0000000000
     20062       162  QMPE      H4R           -12.4142459011      -39.7984319424      -12.8780073199  MEMB      162             0.0000000000
     20063       162  QMPE      H4S           -13.0541547393      -38.2186392134      -13.3625436903  MEMB      162             0.0000000000
     20064       162  QMPE      C25           -12.0539853676      -38.1215760534      -11.3712791903  MEMB      162             0.0000000000
     20065       162  QMPE      H5R           -11.1681468735      -38.4620510077      -10.7936221179  MEMB      162             0.0000000000
     20066       162  QMPE      H5S           -12.9654805526      -38.3702359733      -10.7867570866  MEMB      162             0.0000000000
     20067       162  QMPE      C26           -12.0463732314      -36.5396521760      -11.2369637005  MEMB      162             0.0000000000
     20068       162  QMPE      H6R           -12.9723259365      -36.1256371677      -11.6903118189  MEMB      162             0.0000000000
     20069       162  QMPE      H6S           -11.1897544043      -36.1776977381      -11.8448407396  MEMB      162             0.0000000000
     20070       162  QMPE      C27           -11.7566474163      -36.2789814825       -9.7713825964  MEMB      162             0.0000000000
     20071       162  QMPE      H7R           -10.7280707159      -36.6166515200       -9.5217232501  MEMB      162             0.0000000000
     20072       162  QMPE      H7S           -12.4656045830      -36.9048752511       -9.1883236052  MEMB      162             0.0000000000
     20073       162  QMPE      C28           -11.8333477779      -34.7950153847       -9.3646105650  MEMB      162             0.0000000000
     20074       162  QMPE      H8R           -11.2391927939      -34.2401386040      -10.1218508362  MEMB      162             0.0000000000
     20075       162  QMPE      H8S           -11.4288884063      -34.6985621110       -8.3343533940  MEMB      162             0.0000000000
     20076       162  QMPE      C29           -13.1840930493      -34.2440300986       -9.5081014991  MEMB      162             0.0000000000
     20077       162  QMPE      H9R           -13.7363898524      -34.2030146163      -10.4712247529  MEMB      162             0.0000000000
     20078       162  QMPE      C217          -13.5306384320      -33.1598801626       -8.5200603341  MEMB      162             0.0000000000
     20079       162  QMPE      H17R          -12.7178121317      -32.9381187492       -7.8396011406  MEMB      162             0.0000000000
     20080       162  QMPE      H17S          -14.1125205245      -32.3662399391       -8.9722079788  MEMB      162             0.0000000000
     20081       162  QMPE      C210          -14.0701568440      -34.6323635450       -8.3936196387  MEMB      162             0.0000000000
     20082       162  QMPE      H10R          -15.0840439871      -34.8595685162       -8.7869795173  MEMB      162             0.0000000000
     20083       162  QMPE      C211          -13.5472920183      -35.4178191346       -7.1678822469  MEMB      162             0.0000000000
     20084       162  QMPE      H11R          -13.3996739704      -36.4860250258       -7.4352136227  MEMB      162             0.0000000000
     20085       162  QMPE      H11S          -12.6765883278      -34.8263279325       -6.8124470098  MEMB      162             0.0000000000
     20086       162  QMPE      C212          -14.6380726705      -35.5205481782       -6.0599037843  MEMB      162             0.0000000000
     20087       162  QMPE      H12R          -14.3987884631      -36.3100456299       -5.3157545399  MEMB      162             0.0000000000
     20088       162  QMPE      H12S          -15.6049792061      -35.8446550161       -6.5007747983  MEMB      162             0.0000000000
     20089       162  QMPE      C213          -14.8018742583      -34.2070337778       -5.2091136072  MEMB      162             0.0000000000
     20090       162  QMPE      H13R          -15.1926093037      -33.3868494501       -5.8486015642  MEMB      162             0.0000000000
     20091       162  QMPE      H13S          -13.7802239444      -33.8822249085       -4.9174791800  MEMB      162             0.0000000000
     20092       162  QMPE      C214          -15.5378044096      -34.3528750194       -3.9099723900  MEMB      162             0.0000000000
     20093       162  QMPE      H14R          -14.9633069944      -34.7484522790       -3.0452229029  MEMB      162             0.0000000000
     20094       162  QMPE      H14S          -16.4314318567      -34.9997668348       -4.0414338841  MEMB      162             0.0000000000
     20095       162  QMPE      C215          -16.0464015987      -32.9265858033       -3.4420185659  MEMB      162             0.0000000000
     20096       162  QMPE      H15R          -16.5846924208      -32.3747466623       -4.2420425314  MEMB      162             0.0000000000
     20097       162  QMPE      H15S          -15.1223696843      -32.3706618297       -3.1747456541  MEMB      162             0.0000000000
     20098       162  QMPE      C216          -16.8988269117      -33.0369139405       -2.1941710439  MEMB      162             0.0000000000
     20099       162  QMPE      H16R          -17.8000598463      -33.6266826701       -2.4667018714  MEMB      162             0.0000000000
     20100       162  QMPE      H16S          -17.1487323672      -32.0056753511       -1.8649080015  MEMB      162             0.0000000000
     20101       162  QMPE      H16T          -16.4348354030      -33.5292606355       -1.3129074267  MEMB      162             0.0000000000
     20102       162  QMPE      C33            -6.8168986598      -33.7913689493      -10.9314573310  MEMB      162             0.0000000000
     20103       162  QMPE      H3X            -7.0331398403      -32.7033276327      -10.9925050813  MEMB      162             0.0000000000
     20104       162  QMPE      H3Y            -5.9491191014      -33.9985990207      -10.2693885564  MEMB      162             0.0000000000
     20105       162  QMPE      C34            -8.1566281805      -34.2397250507      -10.2846940380  MEMB      162             0.0000000000
     20106       162  QMPE      H4X            -8.1537480548      -35.3472066041      -10.3729959523  MEMB      162             0.0000000000
     20107       162  QMPE      H4Y            -8.9203479752      -33.8162477279      -10.9715128876  MEMB      162             0.0000000000
     20108       162  QMPE      C35            -8.3144528671      -33.8704730933       -8.8288303058  MEMB      162             0.0000000000
     20109       162  QMPE      H5X            -7.3835279766      -34.0399774922       -8.2466206586  MEMB      162             0.0000000000
     20110       162  QMPE      H5Y            -9.1019560982      -34.5635750889       -8.4630862003  MEMB      162             0.0000000000
     20111       162  QMPE      C36            -8.8247034347      -32.4382549951       -8.5524782401  MEMB      162             0.0000000000
     20112       162  QMPE      H6X            -9.7966659344      -32.3167163563       -9.0767288485  MEMB      162             0.0000000000
     20113       162  QMPE      H6Y            -8.0346916911      -31.8124716321       -9.0200226008  MEMB      162             0.0000000000
     20114       162  QMPE      C37            -8.8580629711      -32.1693584721       -7.0932774620  MEMB      162             0.0000000000
     20115       162  QMPE      H7X            -7.8299261326      -32.2651508846       -6.6833031915  MEMB      162             0.0000000000
     20116       162  QMPE      H7Y            -8.9671288072      -31.0864879763       -6.8700801815  MEMB      162             0.0000000000
     20117       162  QMPE      C38            -9.9776468230      -32.8137798378       -6.2588543725  MEMB      162             0.0000000000
     20118       162  QMPE      H8X           -11.0025807012      -32.5000220475       -6.5510657847  MEMB      162             0.0000000000
     20119       162  QMPE      H8Y            -9.9454190504      -33.9140243991       -6.4096654607  MEMB      162             0.0000000000
     20120       162  QMPE      C39            -9.8528113512      -32.5884090247       -4.7346365038  MEMB      162             0.0000000000
     20121       162  QMPE      H9X           -10.3133895193      -31.5970717083       -4.5360432689  MEMB      162             0.0000000000
     20122       162  QMPE      H9Y            -8.8114545668      -32.5359271926       -4.3510442184  MEMB      162             0.0000000000
     20123       162  QMPE      C310          -10.7551469177      -33.4800146528       -3.9428695319  MEMB      162             0.0000000000
     20124       162  QMPE      H10X          -11.7735042661      -33.4932000764       -4.3868241485  MEMB      162             0.0000000000
     20125       162  QMPE      H10Y          -10.7991113874      -33.0504976877       -2.9191980915  MEMB      162             0.0000000000
     20126       162  QMPE      C311          -10.1948197300      -34.9197702512       -3.8119997809  MEMB      162             0.0000000000
     20127       162  QMPE      H11X           -9.3983959471      -34.7790229153       -3.0502777975  MEMB      162             0.0000000000
     20128       162  QMPE      H11Y           -9.7816132663      -35.2550095634       -4.7872925775  MEMB      162             0.0000000000
     20129       162  QMPE      C312          -11.2388149573      -36.0363719683       -3.3443375354  MEMB      162             0.0000000000
     20130       162  QMPE      H12X          -11.9863777399      -36.1397340979       -4.1596829117  MEMB      162             0.0000000000
     20131       162  QMPE      H12Y          -11.8120410924      -35.6873450296       -2.4589497278  MEMB      162             0.0000000000
     20132       162  QMPE      C313          -10.6105989894      -37.4139611430       -3.0391003712  MEMB      162             0.0000000000
     20133       162  QMPE      H13X          -10.0478687770      -37.7166699489       -3.9479572617  MEMB      162             0.0000000000
     20134       162  QMPE      H13Y          -10.0541916270      -37.3464831284       -2.0798395981  MEMB      162             0.0000000000
     20135       162  QMPE      C314          -11.7345147217      -38.4085471593       -2.6416317392  MEMB      162             0.0000000000
     20136       162  QMPE      H14X          -12.3571544883      -38.6813772852       -3.5203825569  MEMB      162             0.0000000000
     20137       162  QMPE      H14Y          -12.2797802862      -37.9028122891       -1.8162593974  MEMB      162             0.0000000000
     20138       162  QMPE      C315          -11.1858636723      -39.7420839110       -2.1138167016  MEMB      162             0.0000000000
     20139       162  QMPE      H15X          -10.6740073208      -39.6982712715       -1.1287247204  MEMB      162             0.0000000000
     20140       162  QMPE      H15Y          -11.9447703191      -40.5504499598       -2.0436234956  MEMB      162             0.0000000000
     20141       162  QMPE      H15Z          -10.5109648566      -40.1653882488       -2.8881841329  MEMB      162             0.0000000000
     20142       163  PYPG      C13             8.0842006333       32.3830963288      -19.1023591439  MEMB      163             0.0000000000
     20143       163  PYPG      H13A            8.4893148639       32.0015568097      -20.0639365900  MEMB      163             0.0000000000
     20144       163  PYPG      H13B            8.4867575711       31.7340116355      -18.2955394188  MEMB      163             0.0000000000
     20145       163  PYPG      OC3             6.5771234629       32.3526868613      -19.0246886113  MEMB      163             0.0000000000
     20146       163  PYPG      HO3             6.1341251063       32.3382359924      -19.8762422598  MEMB      163             0.0000000000
     20147       163  PYPG      C12             8.5946629753       33.7622890666      -18.6675869686  MEMB      163             0.0000000000
     20148       163  PYPG      H12A            9.7025740347       33.6890039649      -18.5678803078  MEMB      163             0.0000000000
     20149       163  PYPG      OC2             8.0587737104       34.1045421044      -17.3886317529  MEMB      163             0.0000000000
     20150       163  PYPG      HO2             8.3346472465       35.0405428660      -17.2767693089  MEMB      163             0.0000000000
     20151       163  PYPG      C11             8.2955362348       34.9171361163      -19.6871174791  MEMB      163             0.0000000000
     20152       163  PYPG      H11A            8.6237833733       34.5375219252      -20.6783125907  MEMB      163             0.0000000000
     20153       163  PYPG      H11B            8.9933606389       35.7590063075      -19.4906058768  MEMB      163             0.0000000000
     20154       163  PYPG      P               6.3956077596       36.7169642648      -19.2386877382  MEMB      163             0.0000000000
     20155       163  PYPG      O13             4.9405371524       36.7152281473      -19.3061773512  MEMB      163             0.0000000000
     20156       163  PYPG      O14             7.0867787537       37.7042207343      -20.1170768939  MEMB      163             0.0000000000
     20157       163  PYPG      O11             6.9395457847       36.6857841955      -17.7504259163  MEMB      163             0.0000000000
     20158       163  PYPG      O12             6.9475584340       35.2678111814      -19.7172481160  MEMB      163             0.0000000000
     20159       163  PYPG      C1              6.4222512744       37.6042114366      -16.7853263741  MEMB      163             0.0000000000
     20160       163  PYPG      HA              5.3695513537       37.3769416560      -16.5123934535  MEMB      163             0.0000000000
     20161       163  PYPG      HB              6.3861542169       38.6716215885      -17.0913550211  MEMB      163             0.0000000000
     20162       163  PYPG      C2              7.3705286810       37.5383407063      -15.5575117727  MEMB      163             0.0000000000
     20163       163  PYPG      HS              8.2750690570       38.1267104586      -15.8219903684  MEMB      163             0.0000000000
     20164       163  PYPG      O21             7.6532271420       36.2248373084      -15.2477317398  MEMB      163             0.0000000000
     20165       163  PYPG      C21             8.8263802729       36.0199571721      -14.6337113078  MEMB      163             0.0000000000
     20166       163  PYPG      O22             9.5626817913       36.8845632509      -14.1576558198  MEMB      163             0.0000000000
     20167       163  PYPG      C22             9.0680946329       34.4572853417      -14.6777901153  MEMB      163             0.0000000000
     20168       163  PYPG      H2R             9.0866060200       34.1258867886      -15.7380508785  MEMB      163             0.0000000000
     20169       163  PYPG      H2S             8.1665837748       33.9507236195      -14.2715943987  MEMB      163             0.0000000000
     20170       163  PYPG      C3              6.7151183823       38.2499026073      -14.4210306205  MEMB      163             0.0000000000
     20171       163  PYPG      HX              6.6066581003       39.3444010687      -14.5779713983  MEMB      163             0.0000000000
     20172       163  PYPG      HY              7.4464052143       38.2637754454      -13.5847599814  MEMB      163             0.0000000000
     20173       163  PYPG      O31             5.4382202513       37.5357400154      -14.2679539193  MEMB      163             0.0000000000
     20174       163  PYPG      C31             5.3378320880       36.7396588839      -13.1916851133  MEMB      163             0.0000000000
     20175       163  PYPG      O32             6.1234321363       36.5669117978      -12.2857880066  MEMB      163             0.0000000000
     20176       163  PYPG      C32             3.9979801160       35.9526941193      -13.2303493377  MEMB      163             0.0000000000
     20177       163  PYPG      H2X             3.2166778232       36.7415918874      -13.2694425806  MEMB      163             0.0000000000
     20178       163  PYPG      H2Y             4.0458908558       35.3017509090      -14.1294035617  MEMB      163             0.0000000000
     20179       163  PYPG      C23            10.4055552123       34.0185312656      -14.0704058300  MEMB      163             0.0000000000
     20180       163  PYPG      H3R            11.2083746254       34.6421408406      -14.5186393906  MEMB      163             0.0000000000
     20181       163  PYPG      H3S            10.5928643227       32.9597577161      -14.3501109762  MEMB      163             0.0000000000
     20182       163  PYPG      C24            10.4869565051       34.0425684593      -12.5192709837  MEMB      163             0.0000000000
     20183       163  PYPG      H4R            10.8895726817       35.0396292781      -12.2398232976  MEMB      163             0.0000000000
     20184       163  PYPG      H4S            11.1196798006       33.1696179399      -12.2510552964  MEMB      163             0.0000000000
     20185       163  PYPG      C25             9.1302751424       33.7288415144      -11.8132120171  MEMB      163             0.0000000000
     20186       163  PYPG      H5R             8.7240403027       32.7899653462      -12.2465778387  MEMB      163             0.0000000000
     20187       163  PYPG      H5S             8.4351525037       34.5222963189      -12.1618595758  MEMB      163             0.0000000000
     20188       163  PYPG      C26             9.3279205543       33.7384718337      -10.3331028097  MEMB      163             0.0000000000
     20189       163  PYPG      H6R             9.5334150466       34.7836995515      -10.0175205821  MEMB      163             0.0000000000
     20190       163  PYPG      H6S            10.0429545556       32.9578185956       -9.9960153793  MEMB      163             0.0000000000
     20191       163  PYPG      C27             8.0604957030       33.2955060483       -9.6118683374  MEMB      163             0.0000000000
     20192       163  PYPG      H7R             7.7737299029       32.2651932083       -9.9127703348  MEMB      163             0.0000000000
     20193       163  PYPG      H7S             7.2082309840       33.8973471294       -9.9936444172  MEMB      163             0.0000000000
     20194       163  PYPG      C28             8.1086269783       33.4883896440       -8.0410198271  MEMB      163             0.0000000000
     20195       163  PYPG      H8R             7.0570157797       33.3413179742       -7.7142107801  MEMB      163             0.0000000000
     20196       163  PYPG      H8S             8.4604095406       34.5080083065       -7.7746596685  MEMB      163             0.0000000000
     20197       163  PYPG      C29             9.0237415957       32.4741380623       -7.3941987115  MEMB      163             0.0000000000
     20198       163  PYPG      H9R            10.0543227061       32.8170054107       -7.5683952328  MEMB      163             0.0000000000
     20199       163  PYPG      C210            8.8074507957       31.3989761575       -6.6792423643  MEMB      163             0.0000000000
     20200       163  PYPG      H10R            9.6750076744       30.7829139961       -6.4002934908  MEMB      163             0.0000000000
     20201       163  PYPG      C211            7.4498410333       30.9100828087       -6.3179119297  MEMB      163             0.0000000000
     20202       163  PYPG      H11R            7.5353730092       29.8055297021       -6.2344391549  MEMB      163             0.0000000000
     20203       163  PYPG      H11S            6.7114328250       31.2357368175       -7.0814716430  MEMB      163             0.0000000000
     20204       163  PYPG      C212            7.1463524458       31.5670105832       -4.9882284228  MEMB      163             0.0000000000
     20205       163  PYPG      H12R            6.9633507244       32.6609985052       -5.0516448041  MEMB      163             0.0000000000
     20206       163  PYPG      H12S            7.8834424865       31.3800858574       -4.1782418370  MEMB      163             0.0000000000
     20207       163  PYPG      C213            5.8467830843       31.0736323286       -4.3777163743  MEMB      163             0.0000000000
     20208       163  PYPG      H13R            5.9472495258       29.9985982491       -4.1159348545  MEMB      163             0.0000000000
     20209       163  PYPG      H13S            5.0983736792       31.0889807114       -5.1986722387  MEMB      163             0.0000000000
     20210       163  PYPG      C214            5.4492309573       31.9430497672       -3.1918568034  MEMB      163             0.0000000000
     20211       163  PYPG      H14R            6.1609430139       31.7749178136       -2.3554859099  MEMB      163             0.0000000000
     20212       163  PYPG      H14S            5.5943357578       32.9902434119       -3.5333996756  MEMB      163             0.0000000000
     20213       163  PYPG      C215            4.0077021585       31.6159122140       -2.6580341232  MEMB      163             0.0000000000
     20214       163  PYPG      H15R            3.4096404311       31.9921588819       -3.5154025159  MEMB      163             0.0000000000
     20215       163  PYPG      H15S            3.8560982951       32.3008229003       -1.7965041573  MEMB      163             0.0000000000
     20216       163  PYPG      C216            3.7042683176       30.1434025322       -2.3310312087  MEMB      163             0.0000000000
     20217       163  PYPG      H16R            4.4826020894       29.7630215454       -1.6354531567  MEMB      163             0.0000000000
     20218       163  PYPG      H16S            3.8128456842       29.5170299705       -3.2421781296  MEMB      163             0.0000000000
     20219       163  PYPG      H16T            2.6893831458       29.9263122923       -1.9345451911  MEMB      163             0.0000000000
     20220       163  PYPG      C33             3.6984815139       35.0139487963      -12.0452956579  MEMB      163             0.0000000000
     20221       163  PYPG      H3X             2.6843888910       34.5958045499      -12.2216259004  MEMB      163             0.0000000000
     20222       163  PYPG      H3Y             3.7304129034       35.6181943129      -11.1135291358  MEMB      163             0.0000000000
     20223       163  PYPG      C34             4.5987002490       33.7974673945      -12.0205481583  MEMB      163             0.0000000000
     20224       163  PYPG      H4X             5.6568174815       34.1073320346      -11.8838259297  MEMB      163             0.0000000000
     20225       163  PYPG      H4Y             4.7468487120       33.2532345819      -12.9777231332  MEMB      163             0.0000000000
     20226       163  PYPG      C35             4.0813141501       32.7799471006      -11.0086247044  MEMB      163             0.0000000000
     20227       163  PYPG      H5X             4.7727176741       31.9176632011      -11.1215351631  MEMB      163             0.0000000000
     20228       163  PYPG      H5Y             3.0752756364       32.4256520039      -11.3195624256  MEMB      163             0.0000000000
     20229       163  PYPG      C36             4.0966824622       33.2222000102       -9.6276241841  MEMB      163             0.0000000000
     20230       163  PYPG      H6X             4.7689089793       34.1049679033       -9.5714690453  MEMB      163             0.0000000000
     20231       163  PYPG      H6Y             4.6343202129       32.5129591757       -8.9626097858  MEMB      163             0.0000000000
     20232       163  PYPG      C37             2.7437629369       33.4798836333       -8.8813323114  MEMB      163             0.0000000000
     20233       163  PYPG      H7X             2.0860912712       34.0306983144       -9.5873002970  MEMB      163             0.0000000000
     20234       163  PYPG      H7Y             2.1556559182       32.5825396611       -8.5928435443  MEMB      163             0.0000000000
     20235       163  PYPG      C38             3.0055809441       34.2394039320       -7.5084322837  MEMB      163             0.0000000000
     20236       163  PYPG      H8X             3.4876031427       33.4850308618       -6.8504827840  MEMB      163             0.0000000000
     20237       163  PYPG      H8Y             1.9891019135       34.2957115653       -7.0635489355  MEMB      163             0.0000000000
     20238       163  PYPG      C39             3.9441933852       35.4938940428       -7.6101642962  MEMB      163             0.0000000000
     20239       163  PYPG      H9X             3.5803130806       36.1806117372       -8.4040978658  MEMB      163             0.0000000000
     20240       163  PYPG      H9Y             4.9408540565       35.0937608707       -7.8945619816  MEMB      163             0.0000000000
     20241       163  PYPG      C310            4.1266582772       36.2750553596       -6.3167331006  MEMB      163             0.0000000000
     20242       163  PYPG      H10X            3.1220942703       36.5912420926       -5.9628993526  MEMB      163             0.0000000000
     20243       163  PYPG      H10Y            4.7939931961       37.1399624573       -6.5190232706  MEMB      163             0.0000000000
     20244       163  PYPG      C311            4.8529332373       35.5782289067       -5.1745815852  MEMB      163             0.0000000000
     20245       163  PYPG      H11X            5.8864093325       35.2093894514       -5.3483801953  MEMB      163             0.0000000000
     20246       163  PYPG      H11Y            4.1897824094       34.7767523959       -4.7844692581  MEMB      163             0.0000000000
     20247       163  PYPG      C312            5.0075228635       36.6016831184       -4.0095431011  MEMB      163             0.0000000000
     20248       163  PYPG      H12X            5.7165448558       37.4064509159       -4.2992975262  MEMB      163             0.0000000000
     20249       163  PYPG      H12Y            4.0078829888       37.0276045462       -3.7779567725  MEMB      163             0.0000000000
     20250       163  PYPG      C313            5.4193667335       35.9084601639       -2.7331074952  MEMB      163             0.0000000000
     20251       163  PYPG      H13X            4.8964741471       36.4198259041       -1.8967993649  MEMB      163             0.0000000000
     20252       163  PYPG      H13Y            4.8606181222       34.9541895088       -2.6259221967  MEMB      163             0.0000000000
     20253       163  PYPG      C314            6.9254241161       35.6184883076       -2.5473731826  MEMB      163             0.0000000000
     20254       163  PYPG      H14X            7.2657832417       35.0463573807       -3.4368359111  MEMB      163             0.0000000000
     20255       163  PYPG      H14Y            7.5290863756       36.5481235618       -2.4719356264  MEMB      163             0.0000000000
     20256       163  PYPG      C315            7.1998172132       34.7074517384       -1.2623890406  MEMB      163             0.0000000000
     20257       163  PYPG      H15X            6.4030770722       33.9420914732       -1.3796483135  MEMB      163             0.0000000000
     20258       163  PYPG      H15Y            8.2492897227       34.3548903245       -1.3552809197  MEMB      163             0.0000000000
     20259       163  PYPG      C316            6.9279283114       35.4611866271        0.0862724467  MEMB      163             0.0000000000
     20260       163  PYPG      H16X            5.8751109905       35.7457008991        0.2982814170  MEMB      163             0.0000000000
     20261       163  PYPG      H16Y            7.5272926315       36.3946153124        0.0246686944  MEMB      163             0.0000000000
     20262       163  PYPG      H16Z            7.1911789513       34.8462775635        0.9733494331  MEMB      163             0.0000000000
     20263       164  PMPG      C13           -34.5152911544       15.5000747080      -20.6055260531  MEMB      164             0.0000000000
     20264       164  PMPG      H13A          -35.1569084433       14.9560699815      -21.3312719359  MEMB      164             0.0000000000
     20265       164  PMPG      H13B          -34.5970427068       16.6079141927      -20.6236730422  MEMB      164             0.0000000000
     20266       164  PMPG      OC3           -33.1434911825       15.1484553903      -21.0425165953  MEMB      164             0.0000000000
     20267       164  PMPG      HO3           -32.5653660766       15.3466278354      -20.3021794698  MEMB      164             0.0000000000
     20268       164  PMPG      C12           -34.9070909858       15.0336729605      -19.2157316907  MEMB      164             0.0000000000
     20269       164  PMPG      H12A          -35.9424509927       15.3994379892      -19.0233138121  MEMB      164             0.0000000000
     20270       164  PMPG      OC2           -34.0444670211       15.6185303550      -18.2390727873  MEMB      164             0.0000000000
     20271       164  PMPG      HO2           -34.2961523581       15.1502133712      -17.4132092793  MEMB      164             0.0000000000
     20272       164  PMPG      C11           -34.9319893803       13.4660059282      -19.0051204702  MEMB      164             0.0000000000
     20273       164  PMPG      H11A          -35.7970216273       13.0943388368      -19.5949541067  MEMB      164             0.0000000000
     20274       164  PMPG      H11B          -35.1464096805       13.2770947789      -17.9315016112  MEMB      164             0.0000000000
     20275       164  PMPG      P             -32.4947407347       12.6172783563      -18.3650014991  MEMB      164             0.0000000000
     20276       164  PMPG      O13           -32.0778763671       13.9699391529      -17.8680907040  MEMB      164             0.0000000000
     20277       164  PMPG      O14           -31.5406072276       11.7863020134      -19.2169321807  MEMB      164             0.0000000000
     20278       164  PMPG      O11           -33.0103616150       11.6992567551      -17.1444028458  MEMB      164             0.0000000000
     20279       164  PMPG      O12           -33.7208853267       12.8807193829      -19.2976052014  MEMB      164             0.0000000000
     20280       164  PMPG      C1            -33.5545091512       10.3471140172      -17.5630413678  MEMB      164             0.0000000000
     20281       164  PMPG      HA            -33.0650937277        9.9208141805      -18.4647409789  MEMB      164             0.0000000000
     20282       164  PMPG      HB            -34.6435283683       10.3517745493      -17.7828966108  MEMB      164             0.0000000000
     20283       164  PMPG      C2            -33.1843321094        9.3149285679      -16.3845341748  MEMB      164             0.0000000000
     20284       164  PMPG      HS            -33.6259233689        8.3029029432      -16.5075061731  MEMB      164             0.0000000000
     20285       164  PMPG      O21           -33.5752631818        9.8927496683      -15.1546257447  MEMB      164             0.0000000000
     20286       164  PMPG      C21           -34.8615798192        9.9983893309      -14.9166338355  MEMB      164             0.0000000000
     20287       164  PMPG      O22           -35.7674017300        9.5736303928      -15.6314645589  MEMB      164             0.0000000000
     20288       164  PMPG      C22           -35.0615926827       10.7532054023      -13.6527858151  MEMB      164             0.0000000000
     20289       164  PMPG      H2R           -36.1367439302       10.7751776682      -13.3737016571  MEMB      164             0.0000000000
     20290       164  PMPG      H2S           -34.8081573362       11.8298530410      -13.7572912386  MEMB      164             0.0000000000
     20291       164  PMPG      C3            -31.6313689595        9.0359565365      -16.3324557933  MEMB      164             0.0000000000
     20292       164  PMPG      HX            -31.3386760320        8.5984670701      -17.3108497720  MEMB      164             0.0000000000
     20293       164  PMPG      HY            -31.5481991538        8.2077389893      -15.5966166540  MEMB      164             0.0000000000
     20294       164  PMPG      O31           -30.9255028575       10.2288016027      -16.1267900716  MEMB      164             0.0000000000
     20295       164  PMPG      C31           -30.2233212556       10.3188869691      -15.0427704832  MEMB      164             0.0000000000
     20296       164  PMPG      O32           -30.2530479716        9.5023386028      -14.0869855938  MEMB      164             0.0000000000
     20297       164  PMPG      C32           -29.5810777527       11.6670045763      -14.9222252498  MEMB      164             0.0000000000
     20298       164  PMPG      H2X           -30.3489229697       12.4220039243      -15.1955572853  MEMB      164             0.0000000000
     20299       164  PMPG      H2Y           -28.8537745562       11.7924484780      -15.7526557100  MEMB      164             0.0000000000
     20300       164  PMPG      C23           -34.2779472974       10.0855902364      -12.5382908981  MEMB      164             0.0000000000
     20301       164  PMPG      H3R           -33.2199430286       10.4047372440      -12.6527163872  MEMB      164             0.0000000000
     20302       164  PMPG      H3S           -34.3348688979        8.9763667109      -12.5648311942  MEMB      164             0.0000000000
     20303       164  PMPG      C24           -34.8292461365       10.4418903000      -11.1994327869  MEMB      164             0.0000000000
     20304       164  PMPG      H4R           -35.7757566681        9.8842507221      -11.0336712805  MEMB      164             0.0000000000
     20305       164  PMPG      H4S           -34.9807727599       11.5425048082      -11.2022900306  MEMB      164             0.0000000000
     20306       164  PMPG      C25           -33.9106276230       10.1402650328       -9.9920434587  MEMB      164             0.0000000000
     20307       164  PMPG      H5R           -33.4955148368        9.1142763815      -10.0887374528  MEMB      164             0.0000000000
     20308       164  PMPG      H5S           -34.4738069599       10.0601658784       -9.0377195332  MEMB      164             0.0000000000
     20309       164  PMPG      C26           -32.8288403697       11.1075144989       -9.8168452523  MEMB      164             0.0000000000
     20310       164  PMPG      H6R           -33.1322842476       12.1157844464       -9.4623954643  MEMB      164             0.0000000000
     20311       164  PMPG      H6S           -32.4856440844       11.3560531081      -10.8438629232  MEMB      164             0.0000000000
     20312       164  PMPG      C27           -31.6648047250       10.4483730293       -8.9692228044  MEMB      164             0.0000000000
     20313       164  PMPG      H7R           -31.2407037146        9.6247965526       -9.5825588721  MEMB      164             0.0000000000
     20314       164  PMPG      H7S           -32.1215925086       10.0729468838       -8.0286264684  MEMB      164             0.0000000000
     20315       164  PMPG      C28           -30.6138418328       11.4999207375       -8.5434434806  MEMB      164             0.0000000000
     20316       164  PMPG      H8R           -31.2329214574       12.2272495540       -7.9759451961  MEMB      164             0.0000000000
     20317       164  PMPG      H8S           -30.1225438133       12.0549427219       -9.3710290760  MEMB      164             0.0000000000
     20318       164  PMPG      C29           -29.5435740126       10.7384429833       -7.6660512159  MEMB      164             0.0000000000
     20319       164  PMPG      H9R           -28.9462233080       10.0590211318       -8.3109378123  MEMB      164             0.0000000000
     20320       164  PMPG      C217          -28.7496988356       11.5276547064       -6.5948258677  MEMB      164             0.0000000000
     20321       164  PMPG      H17R          -27.7775217956       11.1303576841       -6.3304081723  MEMB      164             0.0000000000
     20322       164  PMPG      H17S          -29.0378531887       12.5516091800       -6.7982287734  MEMB      164             0.0000000000
     20323       164  PMPG      C210          -29.8425588065       10.5409232528       -6.2255306934  MEMB      164             0.0000000000
     20324       164  PMPG      H10R          -29.7438105519        9.4928535160       -5.8703976403  MEMB      164             0.0000000000
     20325       164  PMPG      C211          -30.9891969415       11.3355043508       -5.4705659981  MEMB      164             0.0000000000
     20326       164  PMPG      H11R          -31.1190762263       12.3003066797       -6.0059246487  MEMB      164             0.0000000000
     20327       164  PMPG      H11S          -31.9321327230       10.7501175357       -5.4204124097  MEMB      164             0.0000000000
     20328       164  PMPG      C212          -30.6450748594       11.7031614070       -4.0326041569  MEMB      164             0.0000000000
     20329       164  PMPG      H12R          -30.9241408004       12.7412170888       -3.7517417622  MEMB      164             0.0000000000
     20330       164  PMPG      H12S          -29.5404653540       11.6856157700       -3.9149162791  MEMB      164             0.0000000000
     20331       164  PMPG      C213          -31.1267869782       10.6840717612       -2.9757659153  MEMB      164             0.0000000000
     20332       164  PMPG      H13R          -30.9377652210        9.6550332836       -3.3494920324  MEMB      164             0.0000000000
     20333       164  PMPG      H13S          -32.2256888525       10.8267530357       -2.8959084014  MEMB      164             0.0000000000
     20334       164  PMPG      C214          -30.4917052125       10.8696068408       -1.6083355234  MEMB      164             0.0000000000
     20335       164  PMPG      H14R          -30.8799372458       11.7775451038       -1.0991744966  MEMB      164             0.0000000000
     20336       164  PMPG      H14S          -29.3881276103       10.9351003818       -1.7185533198  MEMB      164             0.0000000000
     20337       164  PMPG      C215          -30.6739685623        9.7451729784       -0.6477266875  MEMB      164             0.0000000000
     20338       164  PMPG      H15R          -30.5886283669       10.3088868116        0.3058272674  MEMB      164             0.0000000000
     20339       164  PMPG      H15S          -29.9144740074        8.9626607823       -0.8602445137  MEMB      164             0.0000000000
     20340       164  PMPG      C216          -32.0810411204        9.1105302704       -0.6593243025  MEMB      164             0.0000000000
     20341       164  PMPG      H16R          -32.1000428613        8.2034850436       -0.0180549584  MEMB      164             0.0000000000
     20342       164  PMPG      H16S          -32.2198544095        8.8345726579       -1.7265169052  MEMB      164             0.0000000000
     20343       164  PMPG      H16T          -32.8949931731        9.8096205991       -0.3710957607  MEMB      164             0.0000000000
     20344       164  PMPG      C33           -29.0534515461       11.9216387578      -13.5045211701  MEMB      164             0.0000000000
     20345       164  PMPG      H3X           -28.1991073923       11.2841571730      -13.1914174384  MEMB      164             0.0000000000
     20346       164  PMPG      H3Y           -29.8786672707       11.8304417588      -12.7662643183  MEMB      164             0.0000000000
     20347       164  PMPG      C34           -28.4810758659       13.3375498137      -13.2690470491  MEMB      164             0.0000000000
     20348       164  PMPG      H4X           -27.7218977305       13.5892229593      -14.0401695517  MEMB      164             0.0000000000
     20349       164  PMPG      H4Y           -28.0466171746       13.4048229457      -12.2487327657  MEMB      164             0.0000000000
     20350       164  PMPG      C35           -29.4704312487       14.5123821353      -13.4768459435  MEMB      164             0.0000000000
     20351       164  PMPG      H5X           -29.8739941703       14.5829977229      -14.5095469709  MEMB      164             0.0000000000
     20352       164  PMPG      H5Y           -28.9565302897       15.4633221967      -13.2200584801  MEMB      164             0.0000000000
     20353       164  PMPG      C36           -30.7185442139       14.4634121303      -12.5525505497  MEMB      164             0.0000000000
     20354       164  PMPG      H6X           -30.2817666086       14.3342978271      -11.5392013484  MEMB      164             0.0000000000
     20355       164  PMPG      H6Y           -31.2864209464       13.5419921625      -12.8031940414  MEMB      164             0.0000000000
     20356       164  PMPG      C37           -31.7212900961       15.5927647151      -12.6269315598  MEMB      164             0.0000000000
     20357       164  PMPG      H7X           -32.1623065493       15.5447302003      -13.6455179809  MEMB      164             0.0000000000
     20358       164  PMPG      H7Y           -31.2268340215       16.5745153034      -12.4656858876  MEMB      164             0.0000000000
     20359       164  PMPG      C38           -32.8298386067       15.4444689006      -11.5624135360  MEMB      164             0.0000000000
     20360       164  PMPG      H8X           -33.1773764422       14.3912251258      -11.4974832751  MEMB      164             0.0000000000
     20361       164  PMPG      H8Y           -33.6775956234       16.0902004860      -11.8765152187  MEMB      164             0.0000000000
     20362       164  PMPG      C39           -32.3988399913       15.9391399967      -10.1870517024  MEMB      164             0.0000000000
     20363       164  PMPG      H9X           -32.0944826537       17.0073792208      -10.1635423292  MEMB      164             0.0000000000
     20364       164  PMPG      H9Y           -31.4392833348       15.4614227847       -9.8948912083  MEMB      164             0.0000000000
     20365       164  PMPG      C310          -33.4778852078       15.7562783890       -9.0579385282  MEMB      164             0.0000000000
     20366       164  PMPG      H10X          -33.6190736232       14.6654464433       -8.9015032908  MEMB      164             0.0000000000
     20367       164  PMPG      H10Y          -34.4556223640       16.1575983276       -9.4004209799  MEMB      164             0.0000000000
     20368       164  PMPG      C311          -33.2217210795       16.4285328436       -7.7284364203  MEMB      164             0.0000000000
     20369       164  PMPG      H11X          -34.1647630557       16.5476768414       -7.1532870858  MEMB      164             0.0000000000
     20370       164  PMPG      H11Y          -32.8976982565       17.4585277543       -7.9900475842  MEMB      164             0.0000000000
     20371       164  PMPG      C312          -32.3116076304       15.6829463206       -6.7653343866  MEMB      164             0.0000000000
     20372       164  PMPG      H12X          -31.2743517125       15.7812774888       -7.1510183588  MEMB      164             0.0000000000
     20373       164  PMPG      H12Y          -32.6989527589       14.6454552556       -6.6764687652  MEMB      164             0.0000000000
     20374       164  PMPG      C313          -32.1867173495       16.2340231551       -5.2863885421  MEMB      164             0.0000000000
     20375       164  PMPG      H13X          -33.2368118489       16.3524275628       -4.9434558513  MEMB      164             0.0000000000
     20376       164  PMPG      H13Y          -31.6003356285       17.1550788785       -5.0811220923  MEMB      164             0.0000000000
     20377       164  PMPG      C314          -31.5291491554       15.1824179006       -4.4994421322  MEMB      164             0.0000000000
     20378       164  PMPG      H14X          -30.6567299171       14.6871601331       -4.9768574011  MEMB      164             0.0000000000
     20379       164  PMPG      H14Y          -32.3013390378       14.4320634038       -4.2255586944  MEMB      164             0.0000000000
     20380       164  PMPG      C315          -30.9417042017       15.8324994477       -3.2050985029  MEMB      164             0.0000000000
     20381       164  PMPG      H15X          -31.8523906226       16.3515974965       -2.8369836727  MEMB      164             0.0000000000
     20382       164  PMPG      H15Y          -30.1102568550       16.5363059799       -3.4234385687  MEMB      164             0.0000000000
     20383       164  PMPG      C316          -30.5383747552       14.8688300127       -2.0586022048  MEMB      164             0.0000000000
     20384       164  PMPG      H16X          -31.3840629999       14.1893254191       -1.8190061467  MEMB      164             0.0000000000
     20385       164  PMPG      H16Y          -30.3513991673       15.5046461166       -1.1669181728  MEMB      164             0.0000000000
     20386       164  PMPG      H16Z          -29.5985328465       14.3452547410       -2.3358871767  MEMB      164             0.0000000000
     20387       165  OYPE      N             -36.6862793734        3.7436190254      -21.4352614988  MEMB      165             0.0000000000
     20388       165  OYPE      HN1           -35.8709885142        4.3791858729      -21.5490833003  MEMB      165             0.0000000000
     20389       165  OYPE      HN2           -36.3900711165        3.0623378363      -20.7074451339  MEMB      165             0.0000000000
     20390       165  OYPE      HN3           -37.0352629350        3.3749263895      -22.3429378291  MEMB      165             0.0000000000
     20391       165  OYPE      C12           -37.8654676911        4.6510991464      -20.9367947308  MEMB      165             0.0000000000
     20392       165  OYPE      H12A          -38.7678587846        4.0053925206      -20.8813479486  MEMB      165             0.0000000000
     20393       165  OYPE      H12B          -38.0687064387        5.4156148207      -21.7168784928  MEMB      165             0.0000000000
     20394       165  OYPE      C11           -37.6716812754        5.2659535665      -19.5203672952  MEMB      165             0.0000000000
     20395       165  OYPE      H11A          -37.5283172164        4.4572052844      -18.7722402802  MEMB      165             0.0000000000
     20396       165  OYPE      H11B          -38.4893560401        5.9217278797      -19.1520075883  MEMB      165             0.0000000000
     20397       165  OYPE      P             -35.9563625091        6.4607160713      -18.0154401174  MEMB      165             0.0000000000
     20398       165  OYPE      O13           -34.8992024237        7.4836322289      -18.1741351975  MEMB      165             0.0000000000
     20399       165  OYPE      O14           -35.5600756076        5.2243841342      -17.2864136710  MEMB      165             0.0000000000
     20400       165  OYPE      O11           -37.2067806446        7.1476868259      -17.2122041331  MEMB      165             0.0000000000
     20401       165  OYPE      O12           -36.6031464648        6.2031203355      -19.4193833345  MEMB      165             0.0000000000
     20402       165  OYPE      C1            -37.5227713289        8.4764957511      -17.6556126499  MEMB      165             0.0000000000
     20403       165  OYPE      HA            -38.1449943635        8.4811819894      -18.5760133445  MEMB      165             0.0000000000
     20404       165  OYPE      HB            -36.6645740899        9.1449893772      -17.8812993714  MEMB      165             0.0000000000
     20405       165  OYPE      C2            -38.3917640744        9.2438282313      -16.6063482964  MEMB      165             0.0000000000
     20406       165  OYPE      HS            -38.5622117121       10.2280548062      -17.0927293293  MEMB      165             0.0000000000
     20407       165  OYPE      O21           -37.5211700086        9.4889736954      -15.4687240786  MEMB      165             0.0000000000
     20408       165  OYPE      C21           -36.4287962552       10.2120884752      -15.5819809941  MEMB      165             0.0000000000
     20409       165  OYPE      O22           -36.1944251784       10.9534600448      -16.5309450447  MEMB      165             0.0000000000
     20410       165  OYPE      C22           -35.4944763312        9.9509184146      -14.3344003929  MEMB      165             0.0000000000
     20411       165  OYPE      H2R           -34.4792053914        9.7210720772      -14.7226226436  MEMB      165             0.0000000000
     20412       165  OYPE      H2S           -35.9229737681        9.0967166910      -13.7677871412  MEMB      165             0.0000000000
     20413       165  OYPE      C3            -39.6982133438        8.5247120733      -16.1722072744  MEMB      165             0.0000000000
     20414       165  OYPE      HX            -40.2592129986        8.2886865083      -17.1016654036  MEMB      165             0.0000000000
     20415       165  OYPE      HY            -40.4242184619        9.1809920511      -15.6463427509  MEMB      165             0.0000000000
     20416       165  OYPE      O31           -39.3847429800        7.2267316058      -15.5911907199  MEMB      165             0.0000000000
     20417       165  OYPE      C31           -39.3573474455        6.9726491352      -14.3102118594  MEMB      165             0.0000000000
     20418       165  OYPE      O32           -39.5492990103        7.7817815183      -13.3881376971  MEMB      165             0.0000000000
     20419       165  OYPE      C32           -39.0555263129        5.4900010517      -14.0468037288  MEMB      165             0.0000000000
     20420       165  OYPE      H2X           -39.9144785797        4.9399993399      -13.6063267237  MEMB      165             0.0000000000
     20421       165  OYPE      H2Y           -38.7567312782        5.0528457701      -15.0235012027  MEMB      165             0.0000000000
     20422       165  OYPE      C23           -35.4619447832       11.2692421958      -13.4670828568  MEMB      165             0.0000000000
     20423       165  OYPE      H3R           -35.1631515241       12.1865761177      -14.0180295716  MEMB      165             0.0000000000
     20424       165  OYPE      H3S           -34.6412912009       11.1418407350      -12.7291007729  MEMB      165             0.0000000000
     20425       165  OYPE      C24           -36.8232094976       11.4692845318      -12.6425031142  MEMB      165             0.0000000000
     20426       165  OYPE      H4R           -37.6612595959       11.4428683982      -13.3714034919  MEMB      165             0.0000000000
     20427       165  OYPE      H4S           -36.9069300061       12.4809925218      -12.1911067399  MEMB      165             0.0000000000
     20428       165  OYPE      C25           -37.1802342027       10.2733574556      -11.6841028469  MEMB      165             0.0000000000
     20429       165  OYPE      H5R           -36.2392162929        9.8299314126      -11.2940009541  MEMB      165             0.0000000000
     20430       165  OYPE      H5S           -37.6990894130        9.4525722151      -12.2239376657  MEMB      165             0.0000000000
     20431       165  OYPE      C26           -37.9111793631       10.6079485863      -10.3273941777  MEMB      165             0.0000000000
     20432       165  OYPE      H6R           -38.1379196176        9.6523815782       -9.8079701611  MEMB      165             0.0000000000
     20433       165  OYPE      H6S           -38.9350168609       11.0079627391      -10.4888450790  MEMB      165             0.0000000000
     20434       165  OYPE      C27           -37.0737873165       11.4080952709       -9.4194965247  MEMB      165             0.0000000000
     20435       165  OYPE      H7R           -36.4756437596       12.2495106610       -9.8300643969  MEMB      165             0.0000000000
     20436       165  OYPE      H7S           -36.4276314114       10.6288939746       -8.9616224590  MEMB      165             0.0000000000
     20437       165  OYPE      C28           -37.7943618049       12.0331090667       -8.1336809370  MEMB      165             0.0000000000
     20438       165  OYPE      H8R           -38.4927733410       12.8416632906       -8.4382838559  MEMB      165             0.0000000000
     20439       165  OYPE      H8S           -36.9106975697       12.5471370293       -7.6986698909  MEMB      165             0.0000000000
     20440       165  OYPE      C29           -38.4051055896       11.0667689213       -7.2319742631  MEMB      165             0.0000000000
     20441       165  OYPE      H9R           -39.5020311432       11.1295021476       -7.2850716812  MEMB      165             0.0000000000
     20442       165  OYPE      C210          -37.8346547953       10.2011651234       -6.3319728385  MEMB      165             0.0000000000
     20443       165  OYPE      H10R          -38.4272522240        9.6992563441       -5.5529250853  MEMB      165             0.0000000000
     20444       165  OYPE      C211          -36.3982021170       10.0914516148       -6.0699839012  MEMB      165             0.0000000000
     20445       165  OYPE      H11R          -36.0188499274        9.8834248923       -7.0932816956  MEMB      165             0.0000000000
     20446       165  OYPE      H11S          -36.2094391108        9.1894684434       -5.4494069139  MEMB      165             0.0000000000
     20447       165  OYPE      C212          -35.6516729922       11.1843057743       -5.3161086126  MEMB      165             0.0000000000
     20448       165  OYPE      H12R          -35.7409942038       12.1949545931       -5.7688019834  MEMB      165             0.0000000000
     20449       165  OYPE      H12S          -34.5453187004       11.0949785602       -5.3642946562  MEMB      165             0.0000000000
     20450       165  OYPE      C213          -35.9575113008       11.4010961340       -3.7889781456  MEMB      165             0.0000000000
     20451       165  OYPE      H13R          -35.1925504070       12.0753368856       -3.3478950915  MEMB      165             0.0000000000
     20452       165  OYPE      H13S          -35.7196424827       10.4201924145       -3.3246865850  MEMB      165             0.0000000000
     20453       165  OYPE      C214          -37.3999574404       11.8415145540       -3.3970479596  MEMB      165             0.0000000000
     20454       165  OYPE      H14R          -38.1640679875       11.0952539760       -3.7029110389  MEMB      165             0.0000000000
     20455       165  OYPE      H14S          -37.6833996303       12.6370976141       -4.1188718321  MEMB      165             0.0000000000
     20456       165  OYPE      C215          -37.5564903795       12.3324647886       -1.9600983022  MEMB      165             0.0000000000
     20457       165  OYPE      H15R          -38.5704260741       12.7741327951       -1.8543396080  MEMB      165             0.0000000000
     20458       165  OYPE      H15S          -36.9044923760       13.1585260951       -1.6039480643  MEMB      165             0.0000000000
     20459       165  OYPE      C216          -37.3207646192       11.2733508218       -0.8832296560  MEMB      165             0.0000000000
     20460       165  OYPE      H16R          -36.2212038969       11.3871527166       -0.7721587206  MEMB      165             0.0000000000
     20461       165  OYPE      H16S          -37.6638211434       10.2532438143       -1.1589377647  MEMB      165             0.0000000000
     20462       165  OYPE      H16T          -37.8226783204       11.6073243429        0.0499729374  MEMB      165             0.0000000000
     20463       165  OYPE      C33           -37.7924746722        5.3759088965      -13.1054364066  MEMB      165             0.0000000000
     20464       165  OYPE      H3X           -37.7033391880        4.2718587970      -13.0191262480  MEMB      165             0.0000000000
     20465       165  OYPE      H3Y           -37.8915016775        5.8312917982      -12.0969021067  MEMB      165             0.0000000000
     20466       165  OYPE      C34           -36.4778548323        5.7890791885      -13.7937626034  MEMB      165             0.0000000000
     20467       165  OYPE      H4X           -36.2182379894        5.0713681463      -14.6011105879  MEMB      165             0.0000000000
     20468       165  OYPE      H4Y           -36.6369976203        6.8158398335      -14.1871544529  MEMB      165             0.0000000000
     20469       165  OYPE      C35           -35.2574616479        5.7407037403      -12.8224018331  MEMB      165             0.0000000000
     20470       165  OYPE      H5X           -34.3038463896        5.8388211131      -13.3839281872  MEMB      165             0.0000000000
     20471       165  OYPE      H5Y           -35.4341688101        4.6570836065      -12.6525114794  MEMB      165             0.0000000000
     20472       165  OYPE      C36           -35.2914517766        6.7624405239      -11.7032969517  MEMB      165             0.0000000000
     20473       165  OYPE      H6X           -34.3509862850        7.3428088751      -11.8173945541  MEMB      165             0.0000000000
     20474       165  OYPE      H6Y           -36.2188461353        7.3611582617      -11.8289856968  MEMB      165             0.0000000000
     20475       165  OYPE      C37           -35.3154119384        6.1295655716      -10.3022035154  MEMB      165             0.0000000000
     20476       165  OYPE      H7X           -35.8413992811        5.1523084972      -10.2509489424  MEMB      165             0.0000000000
     20477       165  OYPE      H7Y           -34.2189007208        6.0639739971      -10.1358252554  MEMB      165             0.0000000000
     20478       165  OYPE      C38           -35.8412674384        7.0168788239       -9.1666974517  MEMB      165             0.0000000000
     20479       165  OYPE      H8X           -36.8008117310        7.4711215987       -9.4942024121  MEMB      165             0.0000000000
     20480       165  OYPE      H8Y           -36.1070750513        6.4537280434       -8.2466276621  MEMB      165             0.0000000000
     20481       165  OYPE      C39           -34.7861608053        8.0343882110       -8.7223287441  MEMB      165             0.0000000000
     20482       165  OYPE      H9X           -34.5427650138        8.8060881188       -9.4674716094  MEMB      165             0.0000000000
     20483       165  OYPE      C310          -34.0370062640        8.0106872459       -7.6259287063  MEMB      165             0.0000000000
     20484       165  OYPE      H10X          -33.2419646768        8.7694168267       -7.5786158762  MEMB      165             0.0000000000
     20485       165  OYPE      C311          -34.0470453826        6.9359030198       -6.5301536817  MEMB      165             0.0000000000
     20486       165  OYPE      H11X          -35.0617778602        6.4835398322       -6.5326718954  MEMB      165             0.0000000000
     20487       165  OYPE      H11Y          -33.2766353403        6.1582578721       -6.7200420966  MEMB      165             0.0000000000
     20488       165  OYPE      C312          -33.6838126493        7.5989916140       -5.1471128341  MEMB      165             0.0000000000
     20489       165  OYPE      H12X          -34.4155358666        8.3820676709       -4.8543778006  MEMB      165             0.0000000000
     20490       165  OYPE      H12Y          -32.7374004880        8.1808513643       -5.1390940367  MEMB      165             0.0000000000
     20491       165  OYPE      C313          -33.7004851477        6.6121895942       -3.9486910252  MEMB      165             0.0000000000
     20492       165  OYPE      H13X          -32.9082931416        5.8774905611       -4.2074770066  MEMB      165             0.0000000000
     20493       165  OYPE      H13Y          -33.3847411149        7.1511559274       -3.0299198254  MEMB      165             0.0000000000
     20494       165  OYPE      C314          -34.9881056858        5.7799563890       -3.7023584050  MEMB      165             0.0000000000
     20495       165  OYPE      H14X          -34.8891966811        5.3426835529       -2.6858301558  MEMB      165             0.0000000000
     20496       165  OYPE      H14Y          -35.3347703009        5.0698592678       -4.4833237046  MEMB      165             0.0000000000
     20497       165  OYPE      C315          -36.3555878514        6.4954382651       -3.4004650226  MEMB      165             0.0000000000
     20498       165  OYPE      H15X          -36.5705310473        6.9744375807       -4.3795866936  MEMB      165             0.0000000000
     20499       165  OYPE      H15Y          -36.2135581167        7.2355443065       -2.5841370419  MEMB      165             0.0000000000
     20500       165  OYPE      C316          -37.4579646929        5.5421601085       -3.0384241771  MEMB      165             0.0000000000
     20501       165  OYPE      H16X          -37.2134826086        5.1828502689       -2.0159534971  MEMB      165             0.0000000000
     20502       165  OYPE      H16Y          -37.5725747910        4.6897445904       -3.7416838145  MEMB      165             0.0000000000
     20503       165  OYPE      C317          -38.9385204152        6.1092841273       -3.0050992360  MEMB      165             0.0000000000
     20504       165  OYPE      H17X          -39.5819951305        5.2045387155       -2.9638968015  MEMB      165             0.0000000000
     20505       165  OYPE      H17Y          -39.0625720322        6.7077936425       -3.9328488383  MEMB      165             0.0000000000
     20506       165  OYPE      C318          -39.2907476301        6.9909784258       -1.8159344724  MEMB      165             0.0000000000
     20507       165  OYPE      H18X          -38.5865707095        7.8494869564       -1.7782635641  MEMB      165             0.0000000000
     20508       165  OYPE      H18Y          -40.3388597975        7.3337175188       -1.9512550843  MEMB      165             0.0000000000
     20509       165  OYPE      H18Z          -39.2670728404        6.3303614186       -0.9229913626  MEMB      165             0.0000000000
     20510       166  PMPE      N              20.0515416046       29.2821512321      -21.6320774313  MEMB      166             0.0000000000
     20511       166  PMPE      HN1            21.0005507339       29.3408704587      -21.2107297021  MEMB      166             0.0000000000
     20512       166  PMPE      HN2            19.5871798483       28.4479514520      -21.2196711893  MEMB      166             0.0000000000
     20513       166  PMPE      HN3            20.0145740167       29.2682015248      -22.6713264725  MEMB      166             0.0000000000
     20514       166  PMPE      C12            19.4073299699       30.6009158834      -21.1256963948  MEMB      166             0.0000000000
     20515       166  PMPE      H12A           18.3691069561       30.5036519167      -21.5090419859  MEMB      166             0.0000000000
     20516       166  PMPE      H12B           19.8543354260       31.3980736373      -21.7573977552  MEMB      166             0.0000000000
     20517       166  PMPE      C11            19.6218255588       30.8773848093      -19.6021799359  MEMB      166             0.0000000000
     20518       166  PMPE      H11A           19.0846361132       30.0030527616      -19.1763959726  MEMB      166             0.0000000000
     20519       166  PMPE      H11B           19.1158339058       31.7818186192      -19.2018140574  MEMB      166             0.0000000000
     20520       166  PMPE      P              21.6315356708       30.8580260672      -17.8660517715  MEMB      166             0.0000000000
     20521       166  PMPE      O13            21.2226526109       32.0739262071      -17.2042017629  MEMB      166             0.0000000000
     20522       166  PMPE      O14            23.1296880843       30.6019726359      -17.8588453587  MEMB      166             0.0000000000
     20523       166  PMPE      O11            20.7226204516       29.6917875870      -17.2537023817  MEMB      166             0.0000000000
     20524       166  PMPE      O12            21.0991996540       30.9124387738      -19.4572449652  MEMB      166             0.0000000000
     20525       166  PMPE      C1             21.0867395795       28.2955368088      -17.4638392178  MEMB      166             0.0000000000
     20526       166  PMPE      HA             22.0826322510       28.1315243639      -17.9281868688  MEMB      166             0.0000000000
     20527       166  PMPE      HB             20.2983042814       27.8718325666      -18.1219922378  MEMB      166             0.0000000000
     20528       166  PMPE      C2             21.0680838698       27.4939080188      -16.1257870712  MEMB      166             0.0000000000
     20529       166  PMPE      HS             20.0524653058       27.6103045863      -15.6907104289  MEMB      166             0.0000000000
     20530       166  PMPE      O21            21.9639340865       28.0176169226      -15.1621360642  MEMB      166             0.0000000000
     20531       166  PMPE      C21            21.6738854095       29.0791655384      -14.3950430234  MEMB      166             0.0000000000
     20532       166  PMPE      O22            20.5998695686       29.5980265297      -14.3227773397  MEMB      166             0.0000000000
     20533       166  PMPE      C22            22.9374252047       29.6531427150      -13.7136633536  MEMB      166             0.0000000000
     20534       166  PMPE      H2R            23.0874139835       30.7145558556      -14.0055997574  MEMB      166             0.0000000000
     20535       166  PMPE      H2S            23.8321833105       29.0894885651      -14.0542843400  MEMB      166             0.0000000000
     20536       166  PMPE      C3             21.3652827082       25.9595770806      -16.3074106677  MEMB      166             0.0000000000
     20537       166  PMPE      HX             22.2117699659       25.9603021354      -17.0269799151  MEMB      166             0.0000000000
     20538       166  PMPE      HY             20.6203944934       25.3673718502      -16.8807830050  MEMB      166             0.0000000000
     20539       166  PMPE      O31            21.8205640793       25.3179843066      -15.0740192875  MEMB      166             0.0000000000
     20540       166  PMPE      C31            20.7462157925       24.9343165443      -14.3797218558  MEMB      166             0.0000000000
     20541       166  PMPE      O32            19.5754662976       25.0236396206      -14.6862999015  MEMB      166             0.0000000000
     20542       166  PMPE      C32            21.1693924075       24.5374877218      -12.9214528011  MEMB      166             0.0000000000
     20543       166  PMPE      H2X            22.1442512240       25.0429155741      -12.7525914641  MEMB      166             0.0000000000
     20544       166  PMPE      H2Y            21.3582582905       23.4439727035      -12.8678310715  MEMB      166             0.0000000000
     20545       166  PMPE      C23            22.6578791254       29.7051427930      -12.1761813143  MEMB      166             0.0000000000
     20546       166  PMPE      H3R            21.8471413840       29.0127346006      -11.8637777147  MEMB      166             0.0000000000
     20547       166  PMPE      H3S            22.2758228471       30.7153613872      -11.9157732472  MEMB      166             0.0000000000
     20548       166  PMPE      C24            23.9193564149       29.2763768579      -11.3557375230  MEMB      166             0.0000000000
     20549       166  PMPE      H4R            24.7033819883       30.0303360309      -11.5819463460  MEMB      166             0.0000000000
     20550       166  PMPE      H4S            24.2741712516       28.2806210544      -11.6976407461  MEMB      166             0.0000000000
     20551       166  PMPE      C25            23.8004874756       29.1486114777       -9.8501813392  MEMB      166             0.0000000000
     20552       166  PMPE      H5R            24.8326005421       28.9542291038       -9.4878563826  MEMB      166             0.0000000000
     20553       166  PMPE      H5S            23.1268795347       28.3316096133       -9.5139058450  MEMB      166             0.0000000000
     20554       166  PMPE      C26            23.4472454863       30.5370858296       -9.1576546553  MEMB      166             0.0000000000
     20555       166  PMPE      H6R            22.6638740460       30.9508658878       -9.8280548083  MEMB      166             0.0000000000
     20556       166  PMPE      H6S            24.3031814649       31.2345173620       -9.2812821863  MEMB      166             0.0000000000
     20557       166  PMPE      C27            23.0309721057       30.3003327216       -7.7041963390  MEMB      166             0.0000000000
     20558       166  PMPE      H7R            22.9536994962       29.2029637545       -7.5488549732  MEMB      166             0.0000000000
     20559       166  PMPE      H7S            22.1303556745       30.8995999641       -7.4510367522  MEMB      166             0.0000000000
     20560       166  PMPE      C28            23.9979157893       30.8688767320       -6.6512763200  MEMB      166             0.0000000000
     20561       166  PMPE      H8R            24.9202692853       30.2500000017       -6.6752902063  MEMB      166             0.0000000000
     20562       166  PMPE      H8S            23.4371298401       30.7328584489       -5.7018871185  MEMB      166             0.0000000000
     20563       166  PMPE      C29            24.2651638187       32.3824791324       -6.8478445254  MEMB      166             0.0000000000
     20564       166  PMPE      H9R            23.4715429197       33.0546674287       -7.2385484973  MEMB      166             0.0000000000
     20565       166  PMPE      C217           25.6342799421       32.8154724437       -7.5430154786  MEMB      166             0.0000000000
     20566       166  PMPE      H17R           25.3572124636       33.5134343672       -8.3233813302  MEMB      166             0.0000000000
     20567       166  PMPE      H17S           26.3044489868       31.9890119571       -7.7448212365  MEMB      166             0.0000000000
     20568       166  PMPE      C210           25.3114964265       33.0507972018       -6.0161606111  MEMB      166             0.0000000000
     20569       166  PMPE      H10R           25.1619101289       34.1303559258       -5.8005255141  MEMB      166             0.0000000000
     20570       166  PMPE      C211           26.1299481548       32.1403726582       -5.0327765966  MEMB      166             0.0000000000
     20571       166  PMPE      H11R           26.9107052043       32.8317650582       -4.6497429845  MEMB      166             0.0000000000
     20572       166  PMPE      H11S           26.6477245910       31.2617031643       -5.4734226286  MEMB      166             0.0000000000
     20573       166  PMPE      C212           25.2930011022       31.5585587474       -3.8498176681  MEMB      166             0.0000000000
     20574       166  PMPE      H12R           24.8256635971       30.5892613695       -4.1261856605  MEMB      166             0.0000000000
     20575       166  PMPE      H12S           24.4870220631       32.3015520057       -3.6690421575  MEMB      166             0.0000000000
     20576       166  PMPE      C213           26.1258652791       31.3802937915       -2.5815556377  MEMB      166             0.0000000000
     20577       166  PMPE      H13R           26.3987576575       32.4060804767       -2.2535120468  MEMB      166             0.0000000000
     20578       166  PMPE      H13S           27.0208705676       30.7506712335       -2.7735497347  MEMB      166             0.0000000000
     20579       166  PMPE      C214           25.3473586019       30.9130780185       -1.3163590657  MEMB      166             0.0000000000
     20580       166  PMPE      H14R           24.7322539446       30.0355644761       -1.6095097602  MEMB      166             0.0000000000
     20581       166  PMPE      H14S           24.7045840993       31.7799803961       -1.0524608714  MEMB      166             0.0000000000
     20582       166  PMPE      C215           26.2480815722       30.6085158892       -0.1189502844  MEMB      166             0.0000000000
     20583       166  PMPE      H15R           26.8193432145       31.5416165036        0.0741942029  MEMB      166             0.0000000000
     20584       166  PMPE      H15S           26.8040744793       29.6773972451       -0.3602196110  MEMB      166             0.0000000000
     20585       166  PMPE      C216           25.5557146391       30.1190120870        1.1940734230  MEMB      166             0.0000000000
     20586       166  PMPE      H16R           25.0208572054       29.1533539578        1.0685611801  MEMB      166             0.0000000000
     20587       166  PMPE      H16S           26.3705333424       29.9369417694        1.9270403742  MEMB      166             0.0000000000
     20588       166  PMPE      H16T           24.8237283892       30.7846176232        1.6995299703  MEMB      166             0.0000000000
     20589       166  PMPE      C33            20.1664579943       25.0825240606      -11.9632387214  MEMB      166             0.0000000000
     20590       166  PMPE      H3X            20.4002600079       24.6596895942      -10.9628040186  MEMB      166             0.0000000000
     20591       166  PMPE      H3Y            19.1308391824       24.8225479181      -12.2702041476  MEMB      166             0.0000000000
     20592       166  PMPE      C34            20.2612107885       26.6018347610      -11.7892957751  MEMB      166             0.0000000000
     20593       166  PMPE      H4X            19.8350655699       27.0495255400      -12.7124931509  MEMB      166             0.0000000000
     20594       166  PMPE      H4Y            21.2564121630       27.0956638729      -11.7839985760  MEMB      166             0.0000000000
     20595       166  PMPE      C35            19.2176408318       27.1641026967      -10.8066648246  MEMB      166             0.0000000000
     20596       166  PMPE      H5X            18.2129028581       26.8334621527      -11.1465171342  MEMB      166             0.0000000000
     20597       166  PMPE      H5Y            19.3398182096       28.2526338524      -10.9923899369  MEMB      166             0.0000000000
     20598       166  PMPE      C36            19.5146441315       26.8469685333       -9.3621253274  MEMB      166             0.0000000000
     20599       166  PMPE      H6X            20.5989433081       26.9781332531       -9.1586254528  MEMB      166             0.0000000000
     20600       166  PMPE      H6Y            19.3142119651       25.7619157227       -9.2324773553  MEMB      166             0.0000000000
     20601       166  PMPE      C37            18.7149075140       27.7237719207       -8.3571842052  MEMB      166             0.0000000000
     20602       166  PMPE      H7X            17.6191540046       27.5534276239       -8.4252128045  MEMB      166             0.0000000000
     20603       166  PMPE      H7Y            19.0072786727       28.7880104012       -8.4846070117  MEMB      166             0.0000000000
     20604       166  PMPE      C38            19.1660684698       27.6699481845       -6.8941992634  MEMB      166             0.0000000000
     20605       166  PMPE      H8X            19.3502634196       26.6471783833       -6.5013447524  MEMB      166             0.0000000000
     20606       166  PMPE      H8Y            18.3324274091       28.0626715714       -6.2736090968  MEMB      166             0.0000000000
     20607       166  PMPE      C39            20.4644339699       28.5106821170       -6.4952525510  MEMB      166             0.0000000000
     20608       166  PMPE      H9X            20.1960410633       29.4576916429       -7.0104803693  MEMB      166             0.0000000000
     20609       166  PMPE      H9Y            21.3569537895       27.9819158401       -6.8929149970  MEMB      166             0.0000000000
     20610       166  PMPE      C310           20.5844040070       28.8028665137       -4.9132060172  MEMB      166             0.0000000000
     20611       166  PMPE      H10X           19.7023368460       29.4037214839       -4.6045768462  MEMB      166             0.0000000000
     20612       166  PMPE      H10Y           21.3569414561       29.5833955994       -4.7450357195  MEMB      166             0.0000000000
     20613       166  PMPE      C311           20.5754339178       27.5559377361       -4.0027755695  MEMB      166             0.0000000000
     20614       166  PMPE      H11X           21.4821300248       27.0392503110       -4.3839018038  MEMB      166             0.0000000000
     20615       166  PMPE      H11Y           19.6568865325       26.9565137446       -4.1796442007  MEMB      166             0.0000000000
     20616       166  PMPE      C312           20.6323352490       27.6293473378       -2.4968551143  MEMB      166             0.0000000000
     20617       166  PMPE      H12X           20.6732762738       26.5927386913       -2.0992550251  MEMB      166             0.0000000000
     20618       166  PMPE      H12Y           19.7782658841       28.1781246009       -2.0454909565  MEMB      166             0.0000000000
     20619       166  PMPE      C313           21.8984818247       28.3652173183       -1.8540340292  MEMB      166             0.0000000000
     20620       166  PMPE      H13X           21.8202031829       29.3124659559       -2.4292852596  MEMB      166             0.0000000000
     20621       166  PMPE      H13Y           22.9152823293       27.9608830740       -2.0462619545  MEMB      166             0.0000000000
     20622       166  PMPE      C314           21.6752151103       28.5872590936       -0.3313862845  MEMB      166             0.0000000000
     20623       166  PMPE      H14X           20.5919149621       28.7801537588       -0.1778497418  MEMB      166             0.0000000000
     20624       166  PMPE      H14Y           22.2566071495       29.4630015220        0.0283063784  MEMB      166             0.0000000000
     20625       166  PMPE      C315           22.1884247161       27.3926539911        0.5296118300  MEMB      166             0.0000000000
     20626       166  PMPE      H15X           23.1773966922       27.0752047716        0.1353009958  MEMB      166             0.0000000000
     20627       166  PMPE      H15Y           21.6068946952       26.4802983051        0.2771234490  MEMB      166             0.0000000000
     20628       166  PMPE      C316           22.3522838052       27.6843405191        2.0420491601  MEMB      166             0.0000000000
     20629       166  PMPE      H16X           21.4102222686       27.5762750628        2.6209828927  MEMB      166             0.0000000000
     20630       166  PMPE      H16Y           22.8231697510       28.6341133508        2.3744932595  MEMB      166             0.0000000000
     20631       166  PMPE      H16Z           22.9560295047       26.8488716103        2.4565420761  MEMB      166             0.0000000000
     20632       167  PMPE      N              24.1885004104       24.9269625207      -20.1962274534  MEMB      167             0.0000000000
     20633       167  PMPE      HN1            23.4335646482       24.2239041092      -20.3280637243  MEMB      167             0.0000000000
     20634       167  PMPE      HN2            24.1660367847       25.1862715925      -19.1893242247  MEMB      167             0.0000000000
     20635       167  PMPE      HN3            23.9758694151       25.8116536072      -20.6999234878  MEMB      167             0.0000000000
     20636       167  PMPE      C12            25.4626261930       24.3968974984      -20.7700799738  MEMB      167             0.0000000000
     20637       167  PMPE      H12A           25.3480745077       24.5253702971      -21.8676655684  MEMB      167             0.0000000000
     20638       167  PMPE      H12B           25.6169124378       23.3339899150      -20.4859248587  MEMB      167             0.0000000000
     20639       167  PMPE      C11            26.7921351379       25.1172478961      -20.3930544784  MEMB      167             0.0000000000
     20640       167  PMPE      H11A           26.6637971102       26.2202230092      -20.4290582526  MEMB      167             0.0000000000
     20641       167  PMPE      H11B           27.3001881086       24.7617518099      -21.3149144709  MEMB      167             0.0000000000
     20642       167  PMPE      P              28.0898560718       25.6313923429      -18.0983641767  MEMB      167             0.0000000000
     20643       167  PMPE      O13            29.0316972288       26.4488158070      -18.8935594454  MEMB      167             0.0000000000
     20644       167  PMPE      O14            28.6801537873       24.7755566925      -17.0374109945  MEMB      167             0.0000000000
     20645       167  PMPE      O11            26.9273221238       26.5575255478      -17.5252406620  MEMB      167             0.0000000000
     20646       167  PMPE      O12            27.3252490469       24.6307688951      -19.0860628175  MEMB      167             0.0000000000
     20647       167  PMPE      C1             25.7052864479       26.1357182129      -17.0600199372  MEMB      167             0.0000000000
     20648       167  PMPE      HA             25.3687651895       25.3536373995      -17.7737594147  MEMB      167             0.0000000000
     20649       167  PMPE      HB             24.9561965564       26.9098869146      -17.3317704523  MEMB      167             0.0000000000
     20650       167  PMPE      C2             25.6507336414       25.6058325112      -15.5267590222  MEMB      167             0.0000000000
     20651       167  PMPE      HS             24.6359406686       25.7775637213      -15.1083998606  MEMB      167             0.0000000000
     20652       167  PMPE      O21            26.5689308670       26.3038608919      -14.6777901940  MEMB      167             0.0000000000
     20653       167  PMPE      C21            26.5241895430       27.6729272777      -14.6938417200  MEMB      167             0.0000000000
     20654       167  PMPE      O22            25.5742716214       28.2021834664      -15.2720127017  MEMB      167             0.0000000000
     20655       167  PMPE      C22            27.6857552174       28.3938054858      -13.9609265416  MEMB      167             0.0000000000
     20656       167  PMPE      H2R            27.6020682180       29.4140475872      -14.3926938027  MEMB      167             0.0000000000
     20657       167  PMPE      H2S            28.6308269399       27.9343355635      -14.3215479730  MEMB      167             0.0000000000
     20658       167  PMPE      C3             25.9198067063       24.1319500116      -15.2325154729  MEMB      167             0.0000000000
     20659       167  PMPE      HX             26.9462380557       23.8200662135      -15.5214585241  MEMB      167             0.0000000000
     20660       167  PMPE      HY             25.3326122968       23.4709465270      -15.9052694672  MEMB      167             0.0000000000
     20661       167  PMPE      O31            25.5888171833       23.8620320345      -13.8481598715  MEMB      167             0.0000000000
     20662       167  PMPE      C31            26.5283935522       23.7577764268      -12.9323705409  MEMB      167             0.0000000000
     20663       167  PMPE      O32            27.7490123618       23.6827151153      -13.1681621752  MEMB      167             0.0000000000
     20664       167  PMPE      C32            25.9887155775       23.6216017871      -11.5431976178  MEMB      167             0.0000000000
     20665       167  PMPE      H2X            25.1346648688       22.9127000017      -11.5919487708  MEMB      167             0.0000000000
     20666       167  PMPE      H2Y            25.7138241012       24.6371530133      -11.1862506520  MEMB      167             0.0000000000
     20667       167  PMPE      C23            27.5980344477       28.4805967372      -12.4568905524  MEMB      167             0.0000000000
     20668       167  PMPE      H3R            26.6289766992       28.6927046792      -11.9566323627  MEMB      167             0.0000000000
     20669       167  PMPE      H3S            28.3599817578       29.1880201149      -12.0653428895  MEMB      167             0.0000000000
     20670       167  PMPE      C24            28.1464812725       27.1270978378      -11.8111134342  MEMB      167             0.0000000000
     20671       167  PMPE      H4R            28.8410619049       26.6225765003      -12.5163344114  MEMB      167             0.0000000000
     20672       167  PMPE      H4S            27.3385268417       26.3729958610      -11.6977080533  MEMB      167             0.0000000000
     20673       167  PMPE      C25            28.7193900346       27.1929496772      -10.3461680978  MEMB      167             0.0000000000
     20674       167  PMPE      H5R            29.6527591327       27.7897050899      -10.4299901660  MEMB      167             0.0000000000
     20675       167  PMPE      H5S            29.0575772359       26.1878632707      -10.0148803585  MEMB      167             0.0000000000
     20676       167  PMPE      C26            27.7436128047       27.6868260246       -9.2224783330  MEMB      167             0.0000000000
     20677       167  PMPE      H6R            27.4106731023       28.6825240599       -9.5858758156  MEMB      167             0.0000000000
     20678       167  PMPE      H6S            28.0381532089       27.8725332512       -8.1674526723  MEMB      167             0.0000000000
     20679       167  PMPE      C27            26.5110584133       26.7651653653       -9.2041124656  MEMB      167             0.0000000000
     20680       167  PMPE      H7R            26.8568947443       25.7258782628       -9.0181001334  MEMB      167             0.0000000000
     20681       167  PMPE      H7S            25.9886818516       26.7182383703      -10.1835212849  MEMB      167             0.0000000000
     20682       167  PMPE      C28            25.6190966580       27.2625346020       -8.1249185892  MEMB      167             0.0000000000
     20683       167  PMPE      H8R            25.2844480736       28.2618685323       -8.4765764943  MEMB      167             0.0000000000
     20684       167  PMPE      H8S            26.2432773171       27.3937388149       -7.2152455804  MEMB      167             0.0000000000
     20685       167  PMPE      C29            24.4704916315       26.3908215480       -7.7825509496  MEMB      167             0.0000000000
     20686       167  PMPE      H9R            24.5479303440       25.3254913280       -8.0881585600  MEMB      167             0.0000000000
     20687       167  PMPE      C217           23.1841607877       26.9837548487       -8.3000657440  MEMB      167             0.0000000000
     20688       167  PMPE      H17R           22.4429192164       26.3170354641       -8.7230736506  MEMB      167             0.0000000000
     20689       167  PMPE      H17S           23.3534869962       27.9752385390       -8.7015348441  MEMB      167             0.0000000000
     20690       167  PMPE      C210           23.4657884283       26.8548752057       -6.7834793378  MEMB      167             0.0000000000
     20691       167  PMPE      H10R           22.7701465414       26.1026063408       -6.3539505984  MEMB      167             0.0000000000
     20692       167  PMPE      C211           23.7104978407       28.1542872832       -6.0507145629  MEMB      167             0.0000000000
     20693       167  PMPE      H11R           22.9461117539       28.8923880742       -6.3751254060  MEMB      167             0.0000000000
     20694       167  PMPE      H11S           24.6684878715       28.6032861636       -6.3897955121  MEMB      167             0.0000000000
     20695       167  PMPE      C212           23.7456827468       27.9724248541       -4.5556417602  MEMB      167             0.0000000000
     20696       167  PMPE      H12R           22.7658916614       27.7484390285       -4.0821853567  MEMB      167             0.0000000000
     20697       167  PMPE      H12S           24.1744151617       28.8985604895       -4.1165713591  MEMB      167             0.0000000000
     20698       167  PMPE      C213           24.6316657423       26.8568175214       -4.0501145393  MEMB      167             0.0000000000
     20699       167  PMPE      H13R           25.6720672393       27.0692104642       -4.3768793410  MEMB      167             0.0000000000
     20700       167  PMPE      H13S           24.3622867718       25.8524839217       -4.4413553585  MEMB      167             0.0000000000
     20701       167  PMPE      C214           24.7222378273       26.6681508448       -2.4915346533  MEMB      167             0.0000000000
     20702       167  PMPE      H14R           25.6484932483       27.1887946792       -2.1670309812  MEMB      167             0.0000000000
     20703       167  PMPE      H14S           25.0119943899       25.6069487665       -2.3359321634  MEMB      167             0.0000000000
     20704       167  PMPE      C215           23.4630397579       27.0819807785       -1.7955968743  MEMB      167             0.0000000000
     20705       167  PMPE      H15R           22.5610673572       26.5121735043       -2.1055749410  MEMB      167             0.0000000000
     20706       167  PMPE      H15S           23.2304663085       28.1297860794       -2.0825371868  MEMB      167             0.0000000000
     20707       167  PMPE      C216           23.5905962772       26.8512477009       -0.2741106843  MEMB      167             0.0000000000
     20708       167  PMPE      H16R           23.6326744630       25.7737166829       -0.0067568815  MEMB      167             0.0000000000
     20709       167  PMPE      H16S           24.5408719297       27.3243258048        0.0537546922  MEMB      167             0.0000000000
     20710       167  PMPE      H16T           22.7713945495       27.3921022346        0.2461848006  MEMB      167             0.0000000000
     20711       167  PMPE      C33            26.8799127862       22.8831673824      -10.5426646447  MEMB      167             0.0000000000
     20712       167  PMPE      H3X            27.8121402236       23.4192736491      -10.2636259422  MEMB      167             0.0000000000
     20713       167  PMPE      H3Y            27.2617351966       21.9419264892      -10.9927739415  MEMB      167             0.0000000000
     20714       167  PMPE      C34            26.2313802617       22.5487738873       -9.1373754948  MEMB      167             0.0000000000
     20715       167  PMPE      H4X            25.1978225206       22.1500493190       -9.2216252355  MEMB      167             0.0000000000
     20716       167  PMPE      H4Y            26.0972014308       23.4434714100       -8.4925245265  MEMB      167             0.0000000000
     20717       167  PMPE      C35            27.2686513001       21.5855883775       -8.3632666267  MEMB      167             0.0000000000
     20718       167  PMPE      H5X            27.3745314290       20.6415547863       -8.9393839790  MEMB      167             0.0000000000
     20719       167  PMPE      H5Y            26.7137989984       21.2634542719       -7.4562442174  MEMB      167             0.0000000000
     20720       167  PMPE      C36            28.5507511156       22.2564810932       -7.9620665037  MEMB      167             0.0000000000
     20721       167  PMPE      H6X            29.0169550206       22.7481111169       -8.8425627917  MEMB      167             0.0000000000
     20722       167  PMPE      H6Y            29.1943182660       21.4226058225       -7.6088029197  MEMB      167             0.0000000000
     20723       167  PMPE      C37            28.2930471053       23.3878028462       -6.9406801132  MEMB      167             0.0000000000
     20724       167  PMPE      H7X            27.7345817625       23.1925954574       -6.0002915441  MEMB      167             0.0000000000
     20725       167  PMPE      H7Y            27.7537427318       24.1701418942       -7.5163686888  MEMB      167             0.0000000000
     20726       167  PMPE      C38            29.5973335903       24.1552098726       -6.5435807603  MEMB      167             0.0000000000
     20727       167  PMPE      H8X            30.0044788938       24.5915695368       -7.4806743519  MEMB      167             0.0000000000
     20728       167  PMPE      H8Y            30.3730628307       23.4364304974       -6.2031092046  MEMB      167             0.0000000000
     20729       167  PMPE      C39            29.4447088982       25.2153113288       -5.4309421559  MEMB      167             0.0000000000
     20730       167  PMPE      H9X            29.2248704744       24.6048911207       -4.5290671067  MEMB      167             0.0000000000
     20731       167  PMPE      H9Y            28.4946921835       25.7079870663       -5.7293719844  MEMB      167             0.0000000000
     20732       167  PMPE      C310           30.6011724537       26.1890268613       -5.3322884889  MEMB      167             0.0000000000
     20733       167  PMPE      H10X           30.8342113790       26.6283579435       -6.3257680971  MEMB      167             0.0000000000
     20734       167  PMPE      H10Y           31.5781156878       25.7285091126       -5.0718527925  MEMB      167             0.0000000000
     20735       167  PMPE      C311           30.2378424671       27.3579382973       -4.3955755550  MEMB      167             0.0000000000
     20736       167  PMPE      H11X           29.4571241741       27.9340748590       -4.9367460616  MEMB      167             0.0000000000
     20737       167  PMPE      H11Y           31.1672144354       27.9480336780       -4.2459897322  MEMB      167             0.0000000000
     20738       167  PMPE      C312           29.4971204039       26.9975762783       -3.0679917010  MEMB      167             0.0000000000
     20739       167  PMPE      H12X           28.6818493031       26.3027158842       -3.3626497986  MEMB      167             0.0000000000
     20740       167  PMPE      H12Y           29.0586787463       27.9046197596       -2.5996300622  MEMB      167             0.0000000000
     20741       167  PMPE      C313           30.4003082479       26.2830596807       -2.0932724427  MEMB      167             0.0000000000
     20742       167  PMPE      H13X           30.8131426175       25.4106258796       -2.6434989619  MEMB      167             0.0000000000
     20743       167  PMPE      H13Y           29.6776875227       25.9897538817       -1.3019994778  MEMB      167             0.0000000000
     20744       167  PMPE      C314           31.4514985859       27.2050943624       -1.5157360503  MEMB      167             0.0000000000
     20745       167  PMPE      H14X           31.9174113701       27.8878862463       -2.2580577846  MEMB      167             0.0000000000
     20746       167  PMPE      H14Y           32.2161568595       26.4722280665       -1.1802854176  MEMB      167             0.0000000000
     20747       167  PMPE      C315           30.9193467361       28.0202047154       -0.2685707081  MEMB      167             0.0000000000
     20748       167  PMPE      H15X           30.7687555267       27.2491589096        0.5170053682  MEMB      167             0.0000000000
     20749       167  PMPE      H15Y           29.9615802222       28.5674285205       -0.4010488850  MEMB      167             0.0000000000
     20750       167  PMPE      C316           32.0025595819       28.9336624501        0.1803082788  MEMB      167             0.0000000000
     20751       167  PMPE      H16X           32.4394085452       29.4890005490       -0.6770632477  MEMB      167             0.0000000000
     20752       167  PMPE      H16Y           32.7888454536       28.3461474816        0.7007908635  MEMB      167             0.0000000000
     20753       167  PMPE      H16Z           31.5828420251       29.7324931514        0.8284026929  MEMB      167             0.0000000000
     20754       168  PMPE      N             -22.2798005606       31.3932881110      -20.3467196205  MEMB      168             0.0000000000
     20755       168  PMPE      HN1           -22.5336610622       32.4012910856      -20.3137817826  MEMB      168             0.0000000000
     20756       168  PMPE      HN2           -22.7797545715       30.8560250073      -21.0836010018  MEMB      168             0.0000000000
     20757       168  PMPE      HN3           -22.4551471241       30.9131953079      -19.4409797967  MEMB      168             0.0000000000
     20758       168  PMPE      C12           -20.8882946950       31.2623324439      -20.8200972248  MEMB      168             0.0000000000
     20759       168  PMPE      H12A          -20.9890217347       31.2547222183      -21.9264955378  MEMB      168             0.0000000000
     20760       168  PMPE      H12B          -20.5366444691       30.3071381023      -20.3748256863  MEMB      168             0.0000000000
     20761       168  PMPE      C11           -20.0008510948       32.3839201833      -20.2529115804  MEMB      168             0.0000000000
     20762       168  PMPE      H11A          -20.4119470460       33.3996440479      -20.4362863564  MEMB      168             0.0000000000
     20763       168  PMPE      H11B          -19.0274016887       32.5552917936      -20.7602074028  MEMB      168             0.0000000000
     20764       168  PMPE      P             -18.3907905482       32.0454016381      -18.1743190616  MEMB      168             0.0000000000
     20765       168  PMPE      O13           -18.1488150478       33.2287334647      -17.3020848914  MEMB      168             0.0000000000
     20766       168  PMPE      O14           -17.3384151511       31.5094777548      -19.0257414015  MEMB      168             0.0000000000
     20767       168  PMPE      O11           -18.7088464411       30.9358911397      -17.1914636950  MEMB      168             0.0000000000
     20768       168  PMPE      O12           -19.7658320795       32.0470184701      -18.8866625263  MEMB      168             0.0000000000
     20769       168  PMPE      C1            -19.8814549553       30.9551827575      -16.4590193860  MEMB      168             0.0000000000
     20770       168  PMPE      HA            -20.7002072375       30.3269383166      -16.8704494423  MEMB      168             0.0000000000
     20771       168  PMPE      HB            -20.3471841914       31.9572454054      -16.3437461252  MEMB      168             0.0000000000
     20772       168  PMPE      C2            -19.5300585980       30.5941047603      -14.8795540999  MEMB      168             0.0000000000
     20773       168  PMPE      HS            -20.1621852196       31.2022957351      -14.1977617313  MEMB      168             0.0000000000
     20774       168  PMPE      O21           -18.1037905876       30.7621259773      -14.5120316003  MEMB      168             0.0000000000
     20775       168  PMPE      C21           -17.7513312839       31.7894322766      -13.7920313656  MEMB      168             0.0000000000
     20776       168  PMPE      O22           -18.4515820614       32.6388825785      -13.3028969630  MEMB      168             0.0000000000
     20777       168  PMPE      C22           -16.2701750788       31.6508021126      -13.4523096026  MEMB      168             0.0000000000
     20778       168  PMPE      H2R           -15.6889629224       31.4288416757      -14.3727697840  MEMB      168             0.0000000000
     20779       168  PMPE      H2S           -16.1655991630       30.8142757050      -12.7287015503  MEMB      168             0.0000000000
     20780       168  PMPE      C3            -19.8153600873       29.0964840913      -14.6589152473  MEMB      168             0.0000000000
     20781       168  PMPE      HX            -19.0085700724       28.5009748327      -15.1372244087  MEMB      168             0.0000000000
     20782       168  PMPE      HY            -20.7915961817       28.9550206037      -15.1700630229  MEMB      168             0.0000000000
     20783       168  PMPE      O31           -19.8318115012       28.7302506141      -13.2854138340  MEMB      168             0.0000000000
     20784       168  PMPE      C31           -20.8048053922       29.3001458071      -12.5156614850  MEMB      168             0.0000000000
     20785       168  PMPE      O32           -21.7850743045       29.8686425630      -12.8947117884  MEMB      168             0.0000000000
     20786       168  PMPE      C32           -20.3896859762       29.0498574811      -11.0878864948  MEMB      168             0.0000000000
     20787       168  PMPE      H2X           -20.5897867404       27.9926199472      -10.8112463362  MEMB      168             0.0000000000
     20788       168  PMPE      H2Y           -21.0105863863       29.6345348190      -10.3758788238  MEMB      168             0.0000000000
     20789       168  PMPE      C23           -15.7063808555       32.9874539588      -13.0388975366  MEMB      168             0.0000000000
     20790       168  PMPE      H3R           -15.7715514575       33.8926108617      -13.6798070261  MEMB      168             0.0000000000
     20791       168  PMPE      H3S           -14.6292371139       32.7463229685      -13.1651451760  MEMB      168             0.0000000000
     20792       168  PMPE      C24           -15.9978773562       33.4791033026      -11.5987893998  MEMB      168             0.0000000000
     20793       168  PMPE      H4R           -16.1710744314       32.5006265382      -11.1018919297  MEMB      168             0.0000000000
     20794       168  PMPE      H4S           -16.9429372324       34.0511856776      -11.4808722839  MEMB      168             0.0000000000
     20795       168  PMPE      C25           -14.7878264166       34.2166593754      -11.0057148685  MEMB      168             0.0000000000
     20796       168  PMPE      H5R           -14.5891427515       35.2090705383      -11.4639347003  MEMB      168             0.0000000000
     20797       168  PMPE      H5S           -13.9552698280       33.5069545669      -11.1993365279  MEMB      168             0.0000000000
     20798       168  PMPE      C26           -14.9344252200       34.5352308011       -9.5105616100  MEMB      168             0.0000000000
     20799       168  PMPE      H6R           -14.0087838482       34.8599060181       -8.9889341633  MEMB      168             0.0000000000
     20800       168  PMPE      H6S           -15.1700272253       33.6013245685       -8.9568179799  MEMB      168             0.0000000000
     20801       168  PMPE      C27           -15.9562571261       35.6162169497       -9.1473641984  MEMB      168             0.0000000000
     20802       168  PMPE      H7R           -16.7235834213       35.5287273494       -9.9460364279  MEMB      168             0.0000000000
     20803       168  PMPE      H7S           -15.5283708773       36.6345772943       -9.2664314484  MEMB      168             0.0000000000
     20804       168  PMPE      C28           -16.7919999580       35.4074106901       -7.9094660620  MEMB      168             0.0000000000
     20805       168  PMPE      H8R           -17.2971461031       36.3936573428       -7.8290553372  MEMB      168             0.0000000000
     20806       168  PMPE      H8S           -16.2205462088       35.1367061944       -6.9959663478  MEMB      168             0.0000000000
     20807       168  PMPE      C29           -17.8303303119       34.2762366874       -8.1510317822  MEMB      168             0.0000000000
     20808       168  PMPE      H9R           -17.3136418139       33.3061576597       -8.3132058625  MEMB      168             0.0000000000
     20809       168  PMPE      C217          -19.0584878535       34.6963329158       -8.9084785646  MEMB      168             0.0000000000
     20810       168  PMPE      H17R          -19.4902500630       33.9870563868       -9.6037455513  MEMB      168             0.0000000000
     20811       168  PMPE      H17S          -19.2372046450       35.7643026026       -8.8887293946  MEMB      168             0.0000000000
     20812       168  PMPE      C210          -19.1885045585       34.2292495028       -7.4300265547  MEMB      168             0.0000000000
     20813       168  PMPE      H10R          -19.7621228996       33.2839180948       -7.3221762724  MEMB      168             0.0000000000
     20814       168  PMPE      C211          -19.7353012375       35.4465268219       -6.5638191256  MEMB      168             0.0000000000
     20815       168  PMPE      H11R          -20.4571560613       35.9825184084       -7.2164754006  MEMB      168             0.0000000000
     20816       168  PMPE      H11S          -18.9082584297       36.1473621468       -6.3206098111  MEMB      168             0.0000000000
     20817       168  PMPE      C212          -20.3289320375       34.8244747253       -5.2807263243  MEMB      168             0.0000000000
     20818       168  PMPE      H12R          -21.1915769750       34.1937860960       -5.5846939299  MEMB      168             0.0000000000
     20819       168  PMPE      H12S          -20.5711701259       35.7036793278       -4.6461861894  MEMB      168             0.0000000000
     20820       168  PMPE      C213          -19.1092378136       34.1230160857       -4.5882137594  MEMB      168             0.0000000000
     20821       168  PMPE      H13R          -18.2082488528       34.7726769966       -4.5662940245  MEMB      168             0.0000000000
     20822       168  PMPE      H13S          -18.7773759593       33.2854060028       -5.2382891425  MEMB      168             0.0000000000
     20823       168  PMPE      C214          -19.3125948461       33.7317367464       -3.1265793036  MEMB      168             0.0000000000
     20824       168  PMPE      H14R          -19.8707915608       34.5537453209       -2.6295495799  MEMB      168             0.0000000000
     20825       168  PMPE      H14S          -18.3069894759       33.7790785691       -2.6566458561  MEMB      168             0.0000000000
     20826       168  PMPE      C215          -20.0567908800       32.3442912775       -2.9651398493  MEMB      168             0.0000000000
     20827       168  PMPE      H15R          -19.5553288206       31.6690826535       -3.6910539114  MEMB      168             0.0000000000
     20828       168  PMPE      H15S          -21.1460023520       32.3682239497       -3.1827792692  MEMB      168             0.0000000000
     20829       168  PMPE      C216          -19.8955349816       31.7277719109       -1.5464197993  MEMB      168             0.0000000000
     20830       168  PMPE      H16R          -20.3197738096       32.2464473887       -0.6602387128  MEMB      168             0.0000000000
     20831       168  PMPE      H16S          -20.3997857360       30.7398414226       -1.4828126510  MEMB      168             0.0000000000
     20832       168  PMPE      H16T          -18.8130449025       31.5303570523       -1.3929169867  MEMB      168             0.0000000000
     20833       168  PMPE      C33           -18.8658740223       29.3555434197      -10.8323069824  MEMB      168             0.0000000000
     20834       168  PMPE      H3X           -18.4924697313       30.1849234039      -11.4702875836  MEMB      168             0.0000000000
     20835       168  PMPE      H3Y           -18.2966881032       28.4667841429      -11.1793738186  MEMB      168             0.0000000000
     20836       168  PMPE      C34           -18.5803396824       29.6287150367       -9.3244916297  MEMB      168             0.0000000000
     20837       168  PMPE      H4X           -19.0557191921       28.7491287889       -8.8400703851  MEMB      168             0.0000000000
     20838       168  PMPE      H4Y           -19.0844898984       30.5753358214       -9.0345558516  MEMB      168             0.0000000000
     20839       168  PMPE      C35           -17.0523430525       29.6691513227       -9.1560960764  MEMB      168             0.0000000000
     20840       168  PMPE      H5X           -16.6453099720       30.3131262448       -9.9647623999  MEMB      168             0.0000000000
     20841       168  PMPE      H5Y           -16.5742396539       28.6759440777       -9.2949397592  MEMB      168             0.0000000000
     20842       168  PMPE      C36           -16.5477265407       30.2361577119       -7.8014450814  MEMB      168             0.0000000000
     20843       168  PMPE      H6X           -16.9339711109       31.2533412163       -7.5767811230  MEMB      168             0.0000000000
     20844       168  PMPE      H6Y           -15.4606928850       30.4339289958       -7.9179150439  MEMB      168             0.0000000000
     20845       168  PMPE      C37           -16.8684325101       29.1891382770       -6.6727371990  MEMB      168             0.0000000000
     20846       168  PMPE      H7X           -16.6506532609       28.1285234572       -6.9217132207  MEMB      168             0.0000000000
     20847       168  PMPE      H7Y           -17.9537888701       29.1513792556       -6.4384363104  MEMB      168             0.0000000000
     20848       168  PMPE      C38           -16.1475247420       29.5754639977       -5.3577906473  MEMB      168             0.0000000000
     20849       168  PMPE      H8X           -16.8936142057       29.9973880750       -4.6509302014  MEMB      168             0.0000000000
     20850       168  PMPE      H8Y           -15.3438645748       30.3217211265       -5.5354192335  MEMB      168             0.0000000000
     20851       168  PMPE      C39           -15.4960365805       28.4042386498       -4.5234707726  MEMB      168             0.0000000000
     20852       168  PMPE      H9X           -14.8615832829       27.8300355764       -5.2320480004  MEMB      168             0.0000000000
     20853       168  PMPE      H9Y           -16.2677936828       27.6774882508       -4.1909865469  MEMB      168             0.0000000000
     20854       168  PMPE      C310          -14.7449015384       28.8906659050       -3.2672426844  MEMB      168             0.0000000000
     20855       168  PMPE      H10X          -14.0624384916       29.6532419747       -3.6997266985  MEMB      168             0.0000000000
     20856       168  PMPE      H10Y          -14.1229598039       28.0402042851       -2.9147881885  MEMB      168             0.0000000000
     20857       168  PMPE      C311          -15.7238183735       29.2406397746       -2.1758335434  MEMB      168             0.0000000000
     20858       168  PMPE      H11X          -16.4885434374       28.4396125184       -2.0871108877  MEMB      168             0.0000000000
     20859       168  PMPE      H11Y          -16.2736517948       30.1327191800       -2.5448830083  MEMB      168             0.0000000000
     20860       168  PMPE      C312          -14.9086487982       29.5900594967       -0.9209094751  MEMB      168             0.0000000000
     20861       168  PMPE      H12X          -14.0750406394       30.2279239532       -1.2849795698  MEMB      168             0.0000000000
     20862       168  PMPE      H12Y          -14.4284162035       28.6553563613       -0.5603162793  MEMB      168             0.0000000000
     20863       168  PMPE      C313          -15.6121976535       30.2277852115        0.3156950088  MEMB      168             0.0000000000
     20864       168  PMPE      H13X          -14.9999476498       30.2545136543        1.2423859499  MEMB      168             0.0000000000
     20865       168  PMPE      H13Y          -16.4401061264       29.5288907370        0.5615303234  MEMB      168             0.0000000000
     20866       168  PMPE      C314          -16.1749201684       31.6274467929        0.0332517323  MEMB      168             0.0000000000
     20867       168  PMPE      H14X          -16.7687206075       31.6185643180       -0.9057065844  MEMB      168             0.0000000000
     20868       168  PMPE      H14Y          -15.3112553262       32.2877918156       -0.1955466418  MEMB      168             0.0000000000
     20869       168  PMPE      C315          -17.0371893712       32.2448813627        1.1168615258  MEMB      168             0.0000000000
     20870       168  PMPE      H15X          -18.0521992251       31.8085981838        1.2340498272  MEMB      168             0.0000000000
     20871       168  PMPE      H15Y          -17.1738769227       33.2906882263        0.7676822034  MEMB      168             0.0000000000
     20872       168  PMPE      C316          -16.3773075751       32.4561214913        2.4964892822  MEMB      168             0.0000000000
     20873       168  PMPE      H16X          -17.1481211571       32.7898390714        3.2236747107  MEMB      168             0.0000000000
     20874       168  PMPE      H16Y          -15.5713950679       33.2161874517        2.4120746220  MEMB      168             0.0000000000
     20875       168  PMPE      H16Z          -15.9829220256       31.5610915941        3.0234634744  MEMB      168             0.0000000000
     20876       169  POPE      N             -27.8781779364       22.3405528147      -18.4138601536  MEMB      169             0.0000000000
     20877       169  POPE      HN1           -27.3102486731       22.5693041663      -19.2545319797  MEMB      169             0.0000000000
     20878       169  POPE      HN2           -28.5135826913       23.1521090870      -18.2751609279  MEMB      169             0.0000000000
     20879       169  POPE      HN3           -27.2934873005       22.3087543675      -17.5543686219  MEMB      169             0.0000000000
     20880       169  POPE      C12           -28.5457915148       21.0107040075      -18.5694353404  MEMB      169             0.0000000000
     20881       169  POPE      H12A          -28.8896271246       20.8204432357      -17.5302535510  MEMB      169             0.0000000000
     20882       169  POPE      H12B          -27.6658987986       20.3843791135      -18.8298716317  MEMB      169             0.0000000000
     20883       169  POPE      C11           -29.5743002608       20.9061881091      -19.6252104623  MEMB      169             0.0000000000
     20884       169  POPE      H11A          -30.0088231131       19.8845757895      -19.5825577560  MEMB      169             0.0000000000
     20885       169  POPE      H11B          -29.0850877055       20.9574281977      -20.6213863876  MEMB      169             0.0000000000
     20886       169  POPE      P             -31.9755751486       21.7016999893      -19.1086823603  MEMB      169             0.0000000000
     20887       169  POPE      O13           -32.2460881164       20.3211129581      -19.5981886813  MEMB      169             0.0000000000
     20888       169  POPE      O14           -32.8494716405       22.7258341394      -19.6384378813  MEMB      169             0.0000000000
     20889       169  POPE      O11           -31.8332937910       21.7645417119      -17.5489666714  MEMB      169             0.0000000000
     20890       169  POPE      O12           -30.5803311669       22.0118822453      -19.4972184634  MEMB      169             0.0000000000
     20891       169  POPE      C1            -31.7010992293       22.9596840614      -16.9171153872  MEMB      169             0.0000000000
     20892       169  POPE      HA            -32.5399030347       23.6524978864      -17.1423669175  MEMB      169             0.0000000000
     20893       169  POPE      HB            -30.8238451840       23.5428782535      -17.2701462828  MEMB      169             0.0000000000
     20894       169  POPE      C2            -31.4357744428       22.7722055691      -15.3387277388  MEMB      169             0.0000000000
     20895       169  POPE      HS            -30.4089785434       23.1308062099      -15.1119748929  MEMB      169             0.0000000000
     20896       169  POPE      O21           -31.7504214412       21.4033899535      -14.8881097013  MEMB      169             0.0000000000
     20897       169  POPE      C21           -30.9926674237       21.0167401427      -13.8660845541  MEMB      169             0.0000000000
     20898       169  POPE      O22           -29.9291312020       21.4952832693      -13.5939444219  MEMB      169             0.0000000000
     20899       169  POPE      C22           -31.5107853825       19.7286930147      -13.1781191442  MEMB      169             0.0000000000
     20900       169  POPE      H2R           -30.9268421853       18.8024957973      -13.3665073198  MEMB      169             0.0000000000
     20901       169  POPE      H2S           -32.4998606452       19.5406072425      -13.6478795980  MEMB      169             0.0000000000
     20902       169  POPE      C3            -32.3290593994       23.8024503047      -14.4837819891  MEMB      169             0.0000000000
     20903       169  POPE      HX            -33.3647466760       23.4007962887      -14.4651578997  MEMB      169             0.0000000000
     20904       169  POPE      HY            -32.3316833504       24.7326541705      -15.0912644542  MEMB      169             0.0000000000
     20905       169  POPE      O31           -31.8874327168       23.8959131267      -13.1374524548  MEMB      169             0.0000000000
     20906       169  POPE      C31           -32.4989431336       24.7834564563      -12.3723555007  MEMB      169             0.0000000000
     20907       169  POPE      O32           -33.4805815223       25.4810479873      -12.6300410988  MEMB      169             0.0000000000
     20908       169  POPE      C32           -31.7363177916       24.7683637235      -10.9921518259  MEMB      169             0.0000000000
     20909       169  POPE      H2X           -31.0912731354       23.8728123386      -10.8647697168  MEMB      169             0.0000000000
     20910       169  POPE      H2Y           -32.5748951737       24.5926984282      -10.2848683711  MEMB      169             0.0000000000
     20911       169  POPE      C23           -31.4761602419       19.8948088792      -11.6095377953  MEMB      169             0.0000000000
     20912       169  POPE      H3R           -32.0110155813       20.8198710135      -11.3053818847  MEMB      169             0.0000000000
     20913       169  POPE      H3S           -30.4298283385       20.0948641631      -11.2941199585  MEMB      169             0.0000000000
     20914       169  POPE      C24           -31.8488753197       18.6014249569      -10.7953952060  MEMB      169             0.0000000000
     20915       169  POPE      H4R           -31.3985063115       17.6986727126      -11.2607202693  MEMB      169             0.0000000000
     20916       169  POPE      H4S           -32.9558692774       18.5072130474      -10.7984670327  MEMB      169             0.0000000000
     20917       169  POPE      C25           -31.4127795124       18.5641952018       -9.2590145763  MEMB      169             0.0000000000
     20918       169  POPE      H5R           -30.3085606927       18.6097982858       -9.1452508927  MEMB      169             0.0000000000
     20919       169  POPE      H5S           -31.6001087857       17.5286887152       -8.9027074701  MEMB      169             0.0000000000
     20920       169  POPE      C26           -32.0190897024       19.6268314034       -8.3552204263  MEMB      169             0.0000000000
     20921       169  POPE      H6R           -31.5077626835       20.5878260088       -8.5773808320  MEMB      169             0.0000000000
     20922       169  POPE      H6S           -31.9547027516       19.3375552469       -7.2844756876  MEMB      169             0.0000000000
     20923       169  POPE      C27           -33.5334899916       19.8630519599       -8.6414699319  MEMB      169             0.0000000000
     20924       169  POPE      H7R           -33.9398908331       18.8406417092       -8.4870777601  MEMB      169             0.0000000000
     20925       169  POPE      H7S           -33.7439909133       20.2682500685       -9.6543006578  MEMB      169             0.0000000000
     20926       169  POPE      C28           -34.3415749107       20.8150964649       -7.7724409447  MEMB      169             0.0000000000
     20927       169  POPE      H8R           -35.3467644450       20.9336751572       -8.2305383480  MEMB      169             0.0000000000
     20928       169  POPE      H8S           -33.9589875125       21.8513523724       -7.8912750369  MEMB      169             0.0000000000
     20929       169  POPE      C29           -34.5100007402       20.4506788457       -6.2874696211  MEMB      169             0.0000000000
     20930       169  POPE      H91           -35.3998677513       19.8472881112       -6.0549700407  MEMB      169             0.0000000000
     20931       169  POPE      C210          -33.7948437191       20.8796384170       -5.2457732236  MEMB      169             0.0000000000
     20932       169  POPE      H101          -34.0287480384       20.5419571415       -4.2253508677  MEMB      169             0.0000000000
     20933       169  POPE      C211          -32.6585054063       21.8190111768       -5.3196467894  MEMB      169             0.0000000000
     20934       169  POPE      H11R          -32.3733119631       22.2261101843       -6.3132552100  MEMB      169             0.0000000000
     20935       169  POPE      H11S          -31.7292821038       21.3257994636       -4.9624252093  MEMB      169             0.0000000000
     20936       169  POPE      C212          -32.8978025161       23.0611954203       -4.4385935560  MEMB      169             0.0000000000
     20937       169  POPE      H12R          -32.0043089919       23.6923912420       -4.2447317799  MEMB      169             0.0000000000
     20938       169  POPE      H12S          -33.3320617499       22.8401590824       -3.4401532035  MEMB      169             0.0000000000
     20939       169  POPE      C213          -33.9529362660       24.0045677382       -5.1160442564  MEMB      169             0.0000000000
     20940       169  POPE      H13R          -34.8381856710       23.4094984380       -5.4267636400  MEMB      169             0.0000000000
     20941       169  POPE      H13S          -33.3966644559       24.2852903154       -6.0358683497  MEMB      169             0.0000000000
     20942       169  POPE      C214          -34.5590390967       25.1080378556       -4.2813407489  MEMB      169             0.0000000000
     20943       169  POPE      H14R          -35.1048996839       24.7979391507       -3.3647193709  MEMB      169             0.0000000000
     20944       169  POPE      H14S          -35.3537865808       25.5977354568       -4.8837476164  MEMB      169             0.0000000000
     20945       169  POPE      C215          -33.6149716872       26.1914440253       -3.8261749163  MEMB      169             0.0000000000
     20946       169  POPE      H15R          -33.2382611648       26.7104243603       -4.7334066647  MEMB      169             0.0000000000
     20947       169  POPE      H15S          -32.7572594044       25.7244876315       -3.2964549995  MEMB      169             0.0000000000
     20948       169  POPE      C216          -34.2319791980       27.2774121535       -2.9632367350  MEMB      169             0.0000000000
     20949       169  POPE      H16R          -35.1536559121       27.6769957136       -3.4377532908  MEMB      169             0.0000000000
     20950       169  POPE      H16S          -33.4289087834       28.0438828138       -2.9194061488  MEMB      169             0.0000000000
     20951       169  POPE      C217          -34.3974618492       26.7791976634       -1.5543298436  MEMB      169             0.0000000000
     20952       169  POPE      H17R          -34.9009858936       25.7946099094       -1.4476931494  MEMB      169             0.0000000000
     20953       169  POPE      H17S          -35.1245418949       27.4922322358       -1.1101928197  MEMB      169             0.0000000000
     20954       169  POPE      C218          -33.1362745935       26.9419928351       -0.6829940145  MEMB      169             0.0000000000
     20955       169  POPE      H18R          -33.1936116042       26.4523050367        0.3126164417  MEMB      169             0.0000000000
     20956       169  POPE      H18S          -32.9208177362       28.0102665470       -0.4669141143  MEMB      169             0.0000000000
     20957       169  POPE      H18T          -32.2440699741       26.4773702763       -1.1546059184  MEMB      169             0.0000000000
     20958       169  POPE      C33           -30.8776020649       26.1058513483      -10.8902939295  MEMB      169             0.0000000000
     20959       169  POPE      H3X           -31.4284432421       27.0313876313      -11.1628328650  MEMB      169             0.0000000000
     20960       169  POPE      H3Y           -29.9864814539       26.1274090544      -11.5534389423  MEMB      169             0.0000000000
     20961       169  POPE      C34           -30.1924667555       26.1381904335       -9.4863690835  MEMB      169             0.0000000000
     20962       169  POPE      H4X           -29.6361923332       27.0997261800       -9.5045049771  MEMB      169             0.0000000000
     20963       169  POPE      H4Y           -29.5962303287       25.2012293270       -9.4559293688  MEMB      169             0.0000000000
     20964       169  POPE      C35           -31.0852495320       26.1778734173       -8.2688659377  MEMB      169             0.0000000000
     20965       169  POPE      H5X           -31.6513922392       25.2220114733       -8.2803291062  MEMB      169             0.0000000000
     20966       169  POPE      H5Y           -31.8050898791       27.0134196581       -8.4030788568  MEMB      169             0.0000000000
     20967       169  POPE      C36           -30.3757569043       26.5736218995       -7.0118862217  MEMB      169             0.0000000000
     20968       169  POPE      H6X           -31.0373082304       27.1001330837       -6.2911537091  MEMB      169             0.0000000000
     20969       169  POPE      H6Y           -29.6213480928       27.2958631560       -7.3907736564  MEMB      169             0.0000000000
     20970       169  POPE      C37           -29.9110270759       25.4453825985       -6.1704393238  MEMB      169             0.0000000000
     20971       169  POPE      H7X           -29.0790648482       24.9061569378       -6.6718321562  MEMB      169             0.0000000000
     20972       169  POPE      H7Y           -30.7753344061       24.7524416773       -6.0860190777  MEMB      169             0.0000000000
     20973       169  POPE      C38           -29.4705414592       25.8999062899       -4.7586355192  MEMB      169             0.0000000000
     20974       169  POPE      H8X           -30.3021205645       26.4331313797       -4.2502385652  MEMB      169             0.0000000000
     20975       169  POPE      H8Y           -28.6326553202       26.6055330839       -4.9439972728  MEMB      169             0.0000000000
     20976       169  POPE      C39           -28.9786000920       24.7925395405       -3.8541678331  MEMB      169             0.0000000000
     20977       169  POPE      H9X           -28.0090601871       24.4651269847       -4.2867342426  MEMB      169             0.0000000000
     20978       169  POPE      H9Y           -29.7505729180       23.9935794225       -3.8606566690  MEMB      169             0.0000000000
     20979       169  POPE      C310          -28.8869502205       25.2116112635       -2.4263493178  MEMB      169             0.0000000000
     20980       169  POPE      H10X          -29.8815616318       25.5746920951       -2.0898354184  MEMB      169             0.0000000000
     20981       169  POPE      H10Y          -28.1837083876       26.0677567186       -2.3439678969  MEMB      169             0.0000000000
     20982       169  POPE      C311          -28.6381721400       24.0605937559       -1.3850262745  MEMB      169             0.0000000000
     20983       169  POPE      H11X          -27.5639720355       23.8190573215       -1.2364492828  MEMB      169             0.0000000000
     20984       169  POPE      H11Y          -29.0635744442       23.1870759534       -1.9238408029  MEMB      169             0.0000000000
     20985       169  POPE      C312          -29.2492669691       24.1404850816        0.0009842729  MEMB      169             0.0000000000
     20986       169  POPE      H12X          -29.1071510700       23.0922114190        0.3404642555  MEMB      169             0.0000000000
     20987       169  POPE      H12Y          -30.3577141977       24.1338773539        0.0759628758  MEMB      169             0.0000000000
     20988       169  POPE      C313          -28.6095345691       25.0937921676        1.0675075417  MEMB      169             0.0000000000
     20989       169  POPE      H13X          -27.5036285625       25.0680444398        0.9644080388  MEMB      169             0.0000000000
     20990       169  POPE      H13Y          -28.8431786836       24.6825160370        2.0727852268  MEMB      169             0.0000000000
     20991       169  POPE      C314          -29.0832072231       26.5317502767        1.0592100735  MEMB      169             0.0000000000
     20992       169  POPE      H14X          -30.0459540420       26.6069729867        1.6085569168  MEMB      169             0.0000000000
     20993       169  POPE      H14Y          -29.1889009013       26.8543721912        0.0013515908  MEMB      169             0.0000000000
     20994       169  POPE      C315          -28.1125154587       27.5674297531        1.6677739517  MEMB      169             0.0000000000
     20995       169  POPE      H15X          -27.1436498872       27.6907204992        1.1382269966  MEMB      169             0.0000000000
     20996       169  POPE      H15Y          -27.8321107755       27.1779470145        2.6697696060  MEMB      169             0.0000000000
     20997       169  POPE      C316          -28.7528842548       28.9397468792        1.9045646023  MEMB      169             0.0000000000
     20998       169  POPE      H16X          -27.9186276361       29.5747287605        2.2721708237  MEMB      169             0.0000000000
     20999       169  POPE      H16Y          -29.4877722146       28.9353521460        2.7377766504  MEMB      169             0.0000000000
     21000       169  POPE      H16Z          -29.2634673417       29.4397855071        1.0539258355  MEMB      169             0.0000000000
     21001       170  POPE      N              30.9129962503       20.1024004046      -20.1530595018  MEMB      170             0.0000000000
     21002       170  POPE      HN1            30.7627327593       20.3856179630      -21.1424072081  MEMB      170             0.0000000000
     21003       170  POPE      HN2            30.3863345134       20.7018022871      -19.4860176200  MEMB      170             0.0000000000
     21004       170  POPE      HN3            31.9134182814       20.1688004627      -19.8767504467  MEMB      170             0.0000000000
     21005       170  POPE      C12            30.6460570494       18.6775331502      -19.8523313715  MEMB      170             0.0000000000
     21006       170  POPE      H12A           29.7317048639       18.4154263327      -20.4264225169  MEMB      170             0.0000000000
     21007       170  POPE      H12B           30.3845121994       18.7029214232      -18.7728542937  MEMB      170             0.0000000000
     21008       170  POPE      C11            31.8301513335       17.7465679962      -20.1387049912  MEMB      170             0.0000000000
     21009       170  POPE      H11A           31.9305340923       17.6346821419      -21.2394891119  MEMB      170             0.0000000000
     21010       170  POPE      H11B           31.5885855082       16.7276809496      -19.7674421915  MEMB      170             0.0000000000
     21011       170  POPE      P              33.7966474899       18.2017957529      -18.3361998130  MEMB      170             0.0000000000
     21012       170  POPE      O13            35.1584303450       18.7002525989      -18.4766484226  MEMB      170             0.0000000000
     21013       170  POPE      O14            33.5615452745       16.8453997154      -17.7853006088  MEMB      170             0.0000000000
     21014       170  POPE      O11            33.0838911892       19.2815198984      -17.5359072716  MEMB      170             0.0000000000
     21015       170  POPE      O12            33.1418891169       18.1787832953      -19.7218480214  MEMB      170             0.0000000000
     21016       170  POPE      C1             33.1216230797       20.7015992073      -17.7287572157  MEMB      170             0.0000000000
     21017       170  POPE      HA             32.1003022665       21.0407252271      -18.0048338086  MEMB      170             0.0000000000
     21018       170  POPE      HB             33.7143907322       20.9987512307      -18.6201876473  MEMB      170             0.0000000000
     21019       170  POPE      C2             33.5848533231       21.4261491273      -16.5105592295  MEMB      170             0.0000000000
     21020       170  POPE      HS             34.6774486919       21.3004904938      -16.3531866054  MEMB      170             0.0000000000
     21021       170  POPE      O21            32.8096463512       21.0175115626      -15.3643778766  MEMB      170             0.0000000000
     21022       170  POPE      C21            33.4794783392       21.0344595192      -14.2271293765  MEMB      170             0.0000000000
     21023       170  POPE      O22            34.6900920372       21.0998845403      -14.0655728819  MEMB      170             0.0000000000
     21024       170  POPE      C22            32.4907288646       20.8343473155      -13.1506258104  MEMB      170             0.0000000000
     21025       170  POPE      H2R            32.1834283014       19.7691493737      -13.0782326245  MEMB      170             0.0000000000
     21026       170  POPE      H2S            31.5919454535       21.4808590390      -13.2429957644  MEMB      170             0.0000000000
     21027       170  POPE      C3             33.4307800294       22.9572199010      -16.7340317249  MEMB      170             0.0000000000
     21028       170  POPE      HX             32.4778517760       23.2116543749      -17.2454140279  MEMB      170             0.0000000000
     21029       170  POPE      HY             34.1986880341       23.2884397347      -17.4654219012  MEMB      170             0.0000000000
     21030       170  POPE      O31            33.6034002236       23.7112070565      -15.5850721105  MEMB      170             0.0000000000
     21031       170  POPE      C31            32.5662004594       24.2490655597      -14.8751246151  MEMB      170             0.0000000000
     21032       170  POPE      O32            31.3957972692       23.9766604730      -15.0498173100  MEMB      170             0.0000000000
     21033       170  POPE      C32            33.0740658726       25.1002505988      -13.7138834043  MEMB      170             0.0000000000
     21034       170  POPE      H2X            33.6024797204       26.0189854743      -14.0470895825  MEMB      170             0.0000000000
     21035       170  POPE      H2Y            33.9121871511       24.5492143395      -13.2361462991  MEMB      170             0.0000000000
     21036       170  POPE      C23            33.2414261801       21.1865730869      -11.8276298517  MEMB      170             0.0000000000
     21037       170  POPE      H3R            33.5037180174       22.2622560949      -11.9194444900  MEMB      170             0.0000000000
     21038       170  POPE      H3S            34.1537687293       20.5921670006      -11.6070998837  MEMB      170             0.0000000000
     21039       170  POPE      C24            32.4305460415       20.8546753885      -10.5058490205  MEMB      170             0.0000000000
     21040       170  POPE      H4R            32.7090496488       21.5660965409       -9.6992289433  MEMB      170             0.0000000000
     21041       170  POPE      H4S            32.8693493687       19.8843442727      -10.1892574681  MEMB      170             0.0000000000
     21042       170  POPE      C25            30.8686164649       20.7072515615      -10.6542953079  MEMB      170             0.0000000000
     21043       170  POPE      H5R            30.6666643058       19.8969184287      -11.3870268249  MEMB      170             0.0000000000
     21044       170  POPE      H5S            30.5309338757       21.6831401405      -11.0640915374  MEMB      170             0.0000000000
     21045       170  POPE      C26            30.2598210357       20.3935510080       -9.3002732280  MEMB      170             0.0000000000
     21046       170  POPE      H6R            30.9165701028       19.6199671258       -8.8479795365  MEMB      170             0.0000000000
     21047       170  POPE      H6S            29.2402518620       19.9589268001       -9.3770958478  MEMB      170             0.0000000000
     21048       170  POPE      C27            30.1075112615       21.5294613646       -8.2503405797  MEMB      170             0.0000000000
     21049       170  POPE      H7R            31.0540958698       22.0782593319       -8.0576774843  MEMB      170             0.0000000000
     21050       170  POPE      H7S            29.8290017049       21.0887504925       -7.2692558380  MEMB      170             0.0000000000
     21051       170  POPE      C28            29.0041974528       22.5780735178       -8.4878958080  MEMB      170             0.0000000000
     21052       170  POPE      H8R            28.0743976885       22.0457547852       -8.1939056476  MEMB      170             0.0000000000
     21053       170  POPE      H8S            28.9579656055       22.8839017093       -9.5549730930  MEMB      170             0.0000000000
     21054       170  POPE      C29            29.0816254864       23.8514599238       -7.6225398543  MEMB      170             0.0000000000
     21055       170  POPE      H91            29.9403293068       24.4632108407       -7.9362095294  MEMB      170             0.0000000000
     21056       170  POPE      C210           28.3346368541       24.1833929813       -6.5677373664  MEMB      170             0.0000000000
     21057       170  POPE      H101           28.6896395369       25.0040149894       -5.9269926064  MEMB      170             0.0000000000
     21058       170  POPE      C211           27.2322973152       23.3861107746       -5.8963662024  MEMB      170             0.0000000000
     21059       170  POPE      H11R           26.6544660248       22.9655514687       -6.7469902311  MEMB      170             0.0000000000
     21060       170  POPE      H11S           26.5428739388       24.0686570702       -5.3549355200  MEMB      170             0.0000000000
     21061       170  POPE      C212           27.5844025594       22.1998152491       -5.0431884299  MEMB      170             0.0000000000
     21062       170  POPE      H12R           28.4486565117       21.7300856998       -5.5596567767  MEMB      170             0.0000000000
     21063       170  POPE      H12S           26.7920329763       21.4235398100       -4.9809966575  MEMB      170             0.0000000000
     21064       170  POPE      C213           27.9312920085       22.5103680613       -3.5048953393  MEMB      170             0.0000000000
     21065       170  POPE      H13R           27.0767011928       22.8405256571       -2.8764129970  MEMB      170             0.0000000000
     21066       170  POPE      H13S           28.7140115832       23.2915487484       -3.6117961704  MEMB      170             0.0000000000
     21067       170  POPE      C214           28.5853927536       21.2819533632       -2.8431084754  MEMB      170             0.0000000000
     21068       170  POPE      H14R           29.5150857096       21.0677528659       -3.4124157233  MEMB      170             0.0000000000
     21069       170  POPE      H14S           27.8781463896       20.4517339555       -2.6313088690  MEMB      170             0.0000000000
     21070       170  POPE      C215           29.2503609860       21.6450765572       -1.4573218580  MEMB      170             0.0000000000
     21071       170  POPE      H15R           28.4504681010       21.8755859834       -0.7215525692  MEMB      170             0.0000000000
     21072       170  POPE      H15S           29.9884604769       22.4746439138       -1.4205987444  MEMB      170             0.0000000000
     21073       170  POPE      C216           30.0087684140       20.4517988617       -0.7980684662  MEMB      170             0.0000000000
     21074       170  POPE      H16R           29.6085421986       19.4610373940       -1.1022581432  MEMB      170             0.0000000000
     21075       170  POPE      H16S           29.9004452000       20.4103341109        0.3068598246  MEMB      170             0.0000000000
     21076       170  POPE      C217           31.5336866784       20.4495330835       -1.0952445339  MEMB      170             0.0000000000
     21077       170  POPE      H17R           31.8303176126       21.4978959044       -0.8778357957  MEMB      170             0.0000000000
     21078       170  POPE      H17S           31.6211917808       20.3212576378       -2.1953407716  MEMB      170             0.0000000000
     21079       170  POPE      C218           32.3655252244       19.4348387347       -0.2541095269  MEMB      170             0.0000000000
     21080       170  POPE      H18R           32.2517176322       19.6451856025        0.8308440096  MEMB      170             0.0000000000
     21081       170  POPE      H18S           33.4318092777       19.4910057921       -0.5610365157  MEMB      170             0.0000000000
     21082       170  POPE      H18T           31.9129897213       18.4406485411       -0.4568877427  MEMB      170             0.0000000000
     21083       170  POPE      C33            32.0411378614       25.3759051888      -12.5767569390  MEMB      170             0.0000000000
     21084       170  POPE      H3X            31.4563436887       24.4807761002      -12.2749612240  MEMB      170             0.0000000000
     21085       170  POPE      H3Y            31.3740697363       26.1633571194      -12.9881694953  MEMB      170             0.0000000000
     21086       170  POPE      C34            32.6553679643       26.1635358228      -11.4100339689  MEMB      170             0.0000000000
     21087       170  POPE      H4X            31.8713306796       26.5980910688      -10.7537049246  MEMB      170             0.0000000000
     21088       170  POPE      H4Y            33.2110514666       27.0683849530      -11.7368129287  MEMB      170             0.0000000000
     21089       170  POPE      C35            33.5147455818       25.3596325778      -10.4520553186  MEMB      170             0.0000000000
     21090       170  POPE      H5X            34.2702579092       24.7824172728      -11.0268111184  MEMB      170             0.0000000000
     21091       170  POPE      H5Y            32.8287975796       24.6323978159       -9.9673636696  MEMB      170             0.0000000000
     21092       170  POPE      C36            34.0317744037       26.2833025258       -9.3275196259  MEMB      170             0.0000000000
     21093       170  POPE      H6X            33.2795912042       26.9075178075       -8.7994123856  MEMB      170             0.0000000000
     21094       170  POPE      H6Y            34.6380179918       26.8934376419      -10.0307438797  MEMB      170             0.0000000000
     21095       170  POPE      C37            34.9657832222       25.5423727376       -8.3033087772  MEMB      170             0.0000000000
     21096       170  POPE      H7X            35.2808260915       26.3617659859       -7.6223794088  MEMB      170             0.0000000000
     21097       170  POPE      H7Y            35.8405003964       25.0923063456       -8.8196720484  MEMB      170             0.0000000000
     21098       170  POPE      C38            34.3789203300       24.5262028520       -7.2035040042  MEMB      170             0.0000000000
     21099       170  POPE      H8X            33.2726766260       24.6166555622       -7.2521292803  MEMB      170             0.0000000000
     21100       170  POPE      H8Y            34.7174430036       24.7786581252       -6.1758901438  MEMB      170             0.0000000000
     21101       170  POPE      C39            34.7517112716       23.0392644159       -7.4264695894  MEMB      170             0.0000000000
     21102       170  POPE      H9X            35.7907168395       22.9601520149       -7.0410739804  MEMB      170             0.0000000000
     21103       170  POPE      H9Y            34.7221615383       22.7945902208       -8.5097891362  MEMB      170             0.0000000000
     21104       170  POPE      C310           33.9091128321       22.0011030152       -6.7356939067  MEMB      170             0.0000000000
     21105       170  POPE      H10X           34.4078635585       21.0095686948       -6.6864093550  MEMB      170             0.0000000000
     21106       170  POPE      H10Y           32.9307647698       21.8162779910       -7.2286399361  MEMB      170             0.0000000000
     21107       170  POPE      C311           33.4293019311       22.5004199968       -5.3317930939  MEMB      170             0.0000000000
     21108       170  POPE      H11X           32.7025550410       21.8074511116       -4.8564467608  MEMB      170             0.0000000000
     21109       170  POPE      H11Y           32.9294095923       23.4907675220       -5.3921297587  MEMB      170             0.0000000000
     21110       170  POPE      C312           34.5355756080       22.5045634662       -4.2545288659  MEMB      170             0.0000000000
     21111       170  POPE      H12X           35.2260418158       23.3203415790       -4.5579816362  MEMB      170             0.0000000000
     21112       170  POPE      H12Y           35.0137822799       21.5042926923       -4.3259250727  MEMB      170             0.0000000000
     21113       170  POPE      C313           34.2069217276       22.8018143102       -2.7936933223  MEMB      170             0.0000000000
     21114       170  POPE      H13X           35.1563773519       22.7432051949       -2.2197424543  MEMB      170             0.0000000000
     21115       170  POPE      H13Y           33.4698999611       22.1145885966       -2.3258899406  MEMB      170             0.0000000000
     21116       170  POPE      C314           33.6779493984       24.1752344099       -2.4972032295  MEMB      170             0.0000000000
     21117       170  POPE      H14X           33.0069910104       24.4172648051       -3.3489999124  MEMB      170             0.0000000000
     21118       170  POPE      H14Y           34.5628403660       24.8453910818       -2.5438841514  MEMB      170             0.0000000000
     21119       170  POPE      C315           33.0580398681       24.3742719846       -1.1017474484  MEMB      170             0.0000000000
     21120       170  POPE      H15X           33.8894324030       24.1416894089       -0.4024521496  MEMB      170             0.0000000000
     21121       170  POPE      H15Y           32.3186765132       23.5518933061       -0.9951820538  MEMB      170             0.0000000000
     21122       170  POPE      C316           32.3850898299       25.7610917265       -0.8371322079  MEMB      170             0.0000000000
     21123       170  POPE      H16X           32.0718542781       25.8908121741        0.2208732458  MEMB      170             0.0000000000
     21124       170  POPE      H16Y           31.5443900220       25.8379334151       -1.5593798636  MEMB      170             0.0000000000
     21125       170  POPE      H16Z           33.0903979496       26.5795122750       -1.0960717194  MEMB      170             0.0000000000
     21126       171  PYPG      C13             8.4969529490      -35.5006085358      -20.5614570125  MEMB      171             0.0000000000
     21127       171  PYPG      H13A            8.0058666980      -34.6724168105      -21.1157614128  MEMB      171             0.0000000000
     21128       171  PYPG      H13B            8.5004031923      -36.3580721444      -21.2679024626  MEMB      171             0.0000000000
     21129       171  PYPG      OC3             7.7189638545      -36.0230470503      -19.4994175392  MEMB      171             0.0000000000
     21130       171  PYPG      HO3             7.3001561940      -35.2922170254      -19.0388878170  MEMB      171             0.0000000000
     21131       171  PYPG      C12             9.9272343417      -34.9416286823      -20.1774643502  MEMB      171             0.0000000000
     21132       171  PYPG      H12A            9.7816413469      -34.1845026055      -19.3722675892  MEMB      171             0.0000000000
     21133       171  PYPG      OC2            10.5159089745      -34.2834146678      -21.3000762055  MEMB      171             0.0000000000
     21134       171  PYPG      HO2            11.4321331327      -34.1035534260      -20.9952810847  MEMB      171             0.0000000000
     21135       171  PYPG      C11            10.9944097209      -35.9857754715      -19.6057819440  MEMB      171             0.0000000000
     21136       171  PYPG      H11A           11.7857612567      -35.4174726143      -19.0718198612  MEMB      171             0.0000000000
     21137       171  PYPG      H11B           11.2892455374      -36.5172380693      -20.5358036311  MEMB      171             0.0000000000
     21138       171  PYPG      P              11.0502522393      -37.8348808006      -17.7776501062  MEMB      171             0.0000000000
     21139       171  PYPG      O13            12.2701810361      -37.1430851672      -17.2848536301  MEMB      171             0.0000000000
     21140       171  PYPG      O14            11.1493893908      -39.1380096835      -18.5055169677  MEMB      171             0.0000000000
     21141       171  PYPG      O11            10.0212515285      -38.0360457886      -16.6034269696  MEMB      171             0.0000000000
     21142       171  PYPG      O12            10.2353529732      -36.8797951491      -18.6843552351  MEMB      171             0.0000000000
     21143       171  PYPG      C1              8.8802459707      -38.8336539695      -16.8257921908  MEMB      171             0.0000000000
     21144       171  PYPG      HA              9.1995133104      -39.8134089199      -17.2410868862  MEMB      171             0.0000000000
     21145       171  PYPG      HB              8.0792415003      -38.4188950256      -17.4743967920  MEMB      171             0.0000000000
     21146       171  PYPG      C2              8.1062359308      -39.0374215197      -15.4693813979  MEMB      171             0.0000000000
     21147       171  PYPG      HS              7.2811059252      -39.7766789310      -15.5529261355  MEMB      171             0.0000000000
     21148       171  PYPG      O21             7.6626101975      -37.7416334148      -15.0598312578  MEMB      171             0.0000000000
     21149       171  PYPG      C21             6.8926830081      -37.5735853001      -14.0352235628  MEMB      171             0.0000000000
     21150       171  PYPG      O22             6.2824766760      -38.3571514585      -13.3321810167  MEMB      171             0.0000000000
     21151       171  PYPG      C22             6.7079253414      -36.0644365324      -13.9566601313  MEMB      171             0.0000000000
     21152       171  PYPG      H2R             6.0318204553      -35.7399468257      -14.7763609973  MEMB      171             0.0000000000
     21153       171  PYPG      H2S             7.6985319860      -35.5835211143      -14.1041033844  MEMB      171             0.0000000000
     21154       171  PYPG      C3              9.1460908974      -39.6168233683      -14.4164805411  MEMB      171             0.0000000000
     21155       171  PYPG      HX              9.3193841368      -40.6171172031      -14.8678147311  MEMB      171             0.0000000000
     21156       171  PYPG      HY              8.6085169572      -39.7856544725      -13.4589675401  MEMB      171             0.0000000000
     21157       171  PYPG      O31            10.3371249915      -38.8724901193      -14.2633709533  MEMB      171             0.0000000000
     21158       171  PYPG      C31            11.1800720029      -39.3737892694      -13.4589455385  MEMB      171             0.0000000000
     21159       171  PYPG      O32            11.1368120279      -40.5066116515      -12.9637340769  MEMB      171             0.0000000000
     21160       171  PYPG      C32            12.3641169794      -38.4878866193      -13.2061965192  MEMB      171             0.0000000000
     21161       171  PYPG      H2X            12.8066597588      -38.9575303286      -12.3018116453  MEMB      171             0.0000000000
     21162       171  PYPG      H2Y            13.1358869396      -38.6131685865      -13.9954975364  MEMB      171             0.0000000000
     21163       171  PYPG      C23             6.2123992662      -35.8006114081      -12.4998803202  MEMB      171             0.0000000000
     21164       171  PYPG      H3R             7.0688281308      -35.5934551558      -11.8231700882  MEMB      171             0.0000000000
     21165       171  PYPG      H3S             5.4706821572      -36.4848370753      -12.0351095331  MEMB      171             0.0000000000
     21166       171  PYPG      C24             5.5147415112      -34.4224968773      -12.5317056353  MEMB      171             0.0000000000
     21167       171  PYPG      H4R             4.4744231622      -34.5161481312      -12.9102393440  MEMB      171             0.0000000000
     21168       171  PYPG      H4S             6.0217907788      -33.7261300023      -13.2333434418  MEMB      171             0.0000000000
     21169       171  PYPG      C25             5.3203972473      -33.8134079465      -11.1208056345  MEMB      171             0.0000000000
     21170       171  PYPG      H5R             5.1749196357      -34.6262059164      -10.3774904366  MEMB      171             0.0000000000
     21171       171  PYPG      H5S             4.3642539867      -33.2600719477      -11.0027760373  MEMB      171             0.0000000000
     21172       171  PYPG      C26             6.4955197190      -32.9661274032      -10.5937891534  MEMB      171             0.0000000000
     21173       171  PYPG      H6R             6.9967367006      -32.2826341935      -11.3120782496  MEMB      171             0.0000000000
     21174       171  PYPG      H6S             7.3316748819      -33.6756864386      -10.4157669681  MEMB      171             0.0000000000
     21175       171  PYPG      C27             6.0731826497      -32.2225994341       -9.2752437365  MEMB      171             0.0000000000
     21176       171  PYPG      H7R             5.6202801962      -33.0901254165       -8.7493169063  MEMB      171             0.0000000000
     21177       171  PYPG      H7S             5.3534883897      -31.4023072822       -9.4837679786  MEMB      171             0.0000000000
     21178       171  PYPG      C28             7.2390690605      -31.5553665891       -8.5283792366  MEMB      171             0.0000000000
     21179       171  PYPG      H8R             7.6355937162      -30.7336653442       -9.1623314055  MEMB      171             0.0000000000
     21180       171  PYPG      H8S             8.1435717414      -32.1978134239       -8.4695769658  MEMB      171             0.0000000000
     21181       171  PYPG      C29             6.7193539165      -30.9867052654       -7.2187940372  MEMB      171             0.0000000000
     21182       171  PYPG      H9R             5.8774824772      -30.2870813552       -7.3273245398  MEMB      171             0.0000000000
     21183       171  PYPG      C210            7.0199815210      -31.2640991737       -5.9803054437  MEMB      171             0.0000000000
     21184       171  PYPG      H10R            6.4411905062      -30.9666479970       -5.0934438891  MEMB      171             0.0000000000
     21185       171  PYPG      C211            7.9994771325      -32.2994800908       -5.5658277515  MEMB      171             0.0000000000
     21186       171  PYPG      H11R            9.0214451378      -31.8822835632       -5.6917221852  MEMB      171             0.0000000000
     21187       171  PYPG      H11S            7.9002272045      -33.1735118642       -6.2444576288  MEMB      171             0.0000000000
     21188       171  PYPG      C212            7.8817623943      -32.8922714316       -4.1243951155  MEMB      171             0.0000000000
     21189       171  PYPG      H12R            8.0191929074      -32.0207746233       -3.4491711677  MEMB      171             0.0000000000
     21190       171  PYPG      H12S            8.7521667077      -33.5663253474       -3.9748337599  MEMB      171             0.0000000000
     21191       171  PYPG      C213            6.4620586506      -33.4667081591       -3.8023537842  MEMB      171             0.0000000000
     21192       171  PYPG      H13R            6.1634085263      -34.1637309052       -4.6143197763  MEMB      171             0.0000000000
     21193       171  PYPG      H13S            5.6722874012      -32.6860230357       -3.7689860976  MEMB      171             0.0000000000
     21194       171  PYPG      C214            6.4691533848      -34.2862982556       -2.4982936216  MEMB      171             0.0000000000
     21195       171  PYPG      H14R            7.4384449341      -34.8086360362       -2.3501105517  MEMB      171             0.0000000000
     21196       171  PYPG      H14S            6.3518226804      -33.6153918277       -1.6205477374  MEMB      171             0.0000000000
     21197       171  PYPG      C215            5.3569180942      -35.3085151124       -2.3528289657  MEMB      171             0.0000000000
     21198       171  PYPG      H15R            5.4475011329      -36.0381435337       -3.1857509374  MEMB      171             0.0000000000
     21199       171  PYPG      H15S            4.4372351913      -34.6916723905       -2.4423231607  MEMB      171             0.0000000000
     21200       171  PYPG      C216            5.3799788304      -36.1329357434       -1.0784181699  MEMB      171             0.0000000000
     21201       171  PYPG      H16R            4.8578618352      -37.0886087654       -1.2984277675  MEMB      171             0.0000000000
     21202       171  PYPG      H16S            5.1617239301      -35.4443632460       -0.2342901782  MEMB      171             0.0000000000
     21203       171  PYPG      H16T            6.4095608249      -36.4920952827       -0.8656125020  MEMB      171             0.0000000000
     21204       171  PYPG      C33            12.0738238201      -37.0230445903      -13.2300197331  MEMB      171             0.0000000000
     21205       171  PYPG      H3X            11.5372820529      -36.6022275431      -14.1071495989  MEMB      171             0.0000000000
     21206       171  PYPG      H3Y            13.0592229495      -36.5157658274      -13.1527031560  MEMB      171             0.0000000000
     21207       171  PYPG      C34            11.3947776788      -36.6164198990      -11.9285331825  MEMB      171             0.0000000000
     21208       171  PYPG      H4X            12.0178383535      -36.8743987384      -11.0456040302  MEMB      171             0.0000000000
     21209       171  PYPG      H4Y            10.5326396697      -37.3031372271      -11.7890391819  MEMB      171             0.0000000000
     21210       171  PYPG      C35            10.8518476608      -35.1788260725      -12.0657446557  MEMB      171             0.0000000000
     21211       171  PYPG      H5X            10.3308320099      -35.1237112004      -13.0454519934  MEMB      171             0.0000000000
     21212       171  PYPG      H5Y            11.6772747740      -34.4359586644      -12.0319917335  MEMB      171             0.0000000000
     21213       171  PYPG      C36             9.8557449731      -34.7975081937      -10.9458604222  MEMB      171             0.0000000000
     21214       171  PYPG      H6X             8.9820978956      -35.4118883809      -11.2517996923  MEMB      171             0.0000000000
     21215       171  PYPG      H6Y             9.5455167440      -33.7307001711      -10.9457394360  MEMB      171             0.0000000000
     21216       171  PYPG      C37            10.2364581077      -35.1491887335       -9.5477985671  MEMB      171             0.0000000000
     21217       171  PYPG      H7X             9.3371587677      -34.9431601246       -8.9288209210  MEMB      171             0.0000000000
     21218       171  PYPG      H7Y            10.5949821503      -36.1969911729       -9.4589635694  MEMB      171             0.0000000000
     21219       171  PYPG      C38            11.3064178848      -34.2235111102       -8.9200842426  MEMB      171             0.0000000000
     21220       171  PYPG      H8X            11.0896685168      -33.2346353850       -9.3777578151  MEMB      171             0.0000000000
     21221       171  PYPG      H8Y            12.3036888794      -34.5246477795       -9.3062028791  MEMB      171             0.0000000000
     21222       171  PYPG      C39            11.3184810815      -34.1621355248       -7.3515140877  MEMB      171             0.0000000000
     21223       171  PYPG      H9X            11.1227656421      -35.2173901312       -7.0643651843  MEMB      171             0.0000000000
     21224       171  PYPG      H9Y            10.4600081666      -33.5427110528       -7.0143804973  MEMB      171             0.0000000000
     21225       171  PYPG      C310           12.6552149383      -33.6658815634       -6.8811738521  MEMB      171             0.0000000000
     21226       171  PYPG      H10X           12.7026005790      -32.6403350191       -7.3058260746  MEMB      171             0.0000000000
     21227       171  PYPG      H10Y           13.4504813226      -34.3580309178       -7.2316040032  MEMB      171             0.0000000000
     21228       171  PYPG      C311           12.8095851415      -33.6119930147       -5.3266551048  MEMB      171             0.0000000000
     21229       171  PYPG      H11X           11.9293995606      -33.0157475207       -5.0040326137  MEMB      171             0.0000000000
     21230       171  PYPG      H11Y           13.7014958220      -33.1273525433       -4.8750578554  MEMB      171             0.0000000000
     21231       171  PYPG      C312           12.6338893234      -35.0164160501       -4.6600871452  MEMB      171             0.0000000000
     21232       171  PYPG      H12X           11.6548167863      -35.4237586953       -4.9914630378  MEMB      171             0.0000000000
     21233       171  PYPG      H12Y           13.5107034073      -35.6019845001       -5.0102697509  MEMB      171             0.0000000000
     21234       171  PYPG      C313           12.7676216230      -34.9712691743       -3.1578296707  MEMB      171             0.0000000000
     21235       171  PYPG      H13X           13.8204421308      -34.7278506593       -2.8996866955  MEMB      171             0.0000000000
     21236       171  PYPG      H13Y           12.1282587589      -34.1729787974       -2.7239291767  MEMB      171             0.0000000000
     21237       171  PYPG      C314           12.3215277920      -36.1781331065       -2.4050381537  MEMB      171             0.0000000000
     21238       171  PYPG      H14X           11.2404472681      -36.4051269288       -2.5236126839  MEMB      171             0.0000000000
     21239       171  PYPG      H14Y           12.8153377247      -37.0785444071       -2.8289870866  MEMB      171             0.0000000000
     21240       171  PYPG      C315           12.5830755011      -36.1890618731       -0.9006275597  MEMB      171             0.0000000000
     21241       171  PYPG      H15X           12.4184299609      -37.2154465945       -0.5085206611  MEMB      171             0.0000000000
     21242       171  PYPG      H15Y           13.6302629364      -35.9910806322       -0.5867434661  MEMB      171             0.0000000000
     21243       171  PYPG      C316           11.6016868512      -35.2656633067       -0.2204613323  MEMB      171             0.0000000000
     21244       171  PYPG      H16X           10.5986960239      -35.1879404975       -0.6919373640  MEMB      171             0.0000000000
     21245       171  PYPG      H16Y           12.0722384397      -34.2622540265       -0.1425398870  MEMB      171             0.0000000000
     21246       171  PYPG      H16Z           11.3754780982      -35.4721992066        0.8474776665  MEMB      171             0.0000000000
     21247       172  PMPE      N              35.2066041596      -19.4314427432      -20.8654742047  MEMB      172             0.0000000000
     21248       172  PMPE      HN1            35.9650155057      -20.0527085754      -21.2125202905  MEMB      172             0.0000000000
     21249       172  PMPE      HN2            34.3868387884      -19.9439010180      -20.4821058892  MEMB      172             0.0000000000
     21250       172  PMPE      HN3            34.9530747403      -18.9414296868      -21.7470692683  MEMB      172             0.0000000000
     21251       172  PMPE      C12            35.7582466724      -18.5773997006      -19.7336236673  MEMB      172             0.0000000000
     21252       172  PMPE      H12A           36.8573240458      -18.5235747916      -19.8867663314  MEMB      172             0.0000000000
     21253       172  PMPE      H12B           35.6847231689      -19.1458010551      -18.7818699333  MEMB      172             0.0000000000
     21254       172  PMPE      C11            35.0604539004      -17.2041126289      -19.6908621512  MEMB      172             0.0000000000
     21255       172  PMPE      H11A           35.3067713235      -16.6953879071      -20.6473389469  MEMB      172             0.0000000000
     21256       172  PMPE      H11B           35.6343404762      -16.6873101514      -18.8921817173  MEMB      172             0.0000000000
     21257       172  PMPE      P              32.8560677517      -17.0417085003      -18.3175471841  MEMB      172             0.0000000000
     21258       172  PMPE      O13            33.4113048094      -17.8388886157      -17.2362115598  MEMB      172             0.0000000000
     21259       172  PMPE      O14            31.3949541611      -17.1615263500      -18.5604255227  MEMB      172             0.0000000000
     21260       172  PMPE      O11            33.2377747916      -15.6241691393      -17.9866458167  MEMB      172             0.0000000000
     21261       172  PMPE      O12            33.7044785416      -17.3551003353      -19.6092098930  MEMB      172             0.0000000000
     21262       172  PMPE      C1             32.4782893512      -14.7659081673      -17.2176290084  MEMB      172             0.0000000000
     21263       172  PMPE      HA             31.5402265378      -15.2934078176      -16.9417607194  MEMB      172             0.0000000000
     21264       172  PMPE      HB             32.2496406839      -13.8501325022      -17.8036288419  MEMB      172             0.0000000000
     21265       172  PMPE      C2             33.1878699119      -14.3312730823      -15.8929336239  MEMB      172             0.0000000000
     21266       172  PMPE      HS             33.7354318077      -13.4067253635      -16.1752603362  MEMB      172             0.0000000000
     21267       172  PMPE      O21            33.9873665457      -15.3707199793      -15.3514012590  MEMB      172             0.0000000000
     21268       172  PMPE      C21            35.0097868975      -15.0744505691      -14.6981934068  MEMB      172             0.0000000000
     21269       172  PMPE      O22            35.4946233173      -14.0579682233      -14.4029886157  MEMB      172             0.0000000000
     21270       172  PMPE      C22            35.6885242965      -16.4115889892      -14.2520975158  MEMB      172             0.0000000000
     21271       172  PMPE      H2R            36.0127776286      -16.8357584005      -15.2263978790  MEMB      172             0.0000000000
     21272       172  PMPE      H2S            34.8682584312      -17.0053402690      -13.7949932488  MEMB      172             0.0000000000
     21273       172  PMPE      C3             32.1640460700      -14.0443649867      -14.7599142589  MEMB      172             0.0000000000
     21274       172  PMPE      HX             31.6729890252      -15.0057661459      -14.4974414917  MEMB      172             0.0000000000
     21275       172  PMPE      HY             31.3708448397      -13.3432708686      -15.0969900784  MEMB      172             0.0000000000
     21276       172  PMPE      O31            32.7851205637      -13.4457039633      -13.5296530658  MEMB      172             0.0000000000
     21277       172  PMPE      C31            32.0146369028      -13.5805516137      -12.4081687359  MEMB      172             0.0000000000
     21278       172  PMPE      O32            30.9338914352      -14.1442726406      -12.3944783499  MEMB      172             0.0000000000
     21279       172  PMPE      C32            32.8762402318      -13.0622516433      -11.2462077571  MEMB      172             0.0000000000
     21280       172  PMPE      H2X            32.6151442589      -13.5791651234      -10.2980780135  MEMB      172             0.0000000000
     21281       172  PMPE      H2Y            32.6612058673      -11.9947513598      -11.0259246776  MEMB      172             0.0000000000
     21282       172  PMPE      C23            36.8172534171      -16.0267091735      -13.2904043354  MEMB      172             0.0000000000
     21283       172  PMPE      H3R            36.3464107196      -15.4117769903      -12.4938575199  MEMB      172             0.0000000000
     21284       172  PMPE      H3S            37.5974768424      -15.3875046920      -13.7562257884  MEMB      172             0.0000000000
     21285       172  PMPE      C24            37.6108938324      -17.1081810855      -12.5198393520  MEMB      172             0.0000000000
     21286       172  PMPE      H4R            38.1638643166      -16.4227294576      -11.8425644972  MEMB      172             0.0000000000
     21287       172  PMPE      H4S            38.3568058394      -17.5744496811      -13.1984626668  MEMB      172             0.0000000000
     21288       172  PMPE      C25            36.8538795439      -18.3384172808      -11.8674326189  MEMB      172             0.0000000000
     21289       172  PMPE      H5R            37.5317022411      -18.9822668807      -11.2671535569  MEMB      172             0.0000000000
     21290       172  PMPE      H5S            36.3036643893      -18.9632527495      -12.6030718749  MEMB      172             0.0000000000
     21291       172  PMPE      C26            35.7792832207      -17.7784427508      -10.9386699250  MEMB      172             0.0000000000
     21292       172  PMPE      H6R            34.7597905660      -17.6471150292      -11.3602248489  MEMB      172             0.0000000000
     21293       172  PMPE      H6S            36.0652685957      -16.7297391838      -10.7089873581  MEMB      172             0.0000000000
     21294       172  PMPE      C27            35.5349150829      -18.7224182651       -9.7270268875  MEMB      172             0.0000000000
     21295       172  PMPE      H7R            36.4972218803      -18.7984470962       -9.1770219471  MEMB      172             0.0000000000
     21296       172  PMPE      H7S            35.1444327326      -19.6244219020      -10.2449404475  MEMB      172             0.0000000000
     21297       172  PMPE      C28            34.4445201217      -18.1283853968       -8.7977074197  MEMB      172             0.0000000000
     21298       172  PMPE      H8R            33.5918518733      -17.7023628180       -9.3684811349  MEMB      172             0.0000000000
     21299       172  PMPE      H8S            34.8787298178      -17.3095025082       -8.1851609325  MEMB      172             0.0000000000
     21300       172  PMPE      C29            34.0900546294      -19.2451151786       -7.7652108051  MEMB      172             0.0000000000
     21301       172  PMPE      H9R            34.9555175991      -19.8083015877       -7.3551914019  MEMB      172             0.0000000000
     21302       172  PMPE      C217           33.2557195068      -20.3341141680       -8.4252835823  MEMB      172             0.0000000000
     21303       172  PMPE      H17R           33.6357952058      -21.3140995125       -8.1643996922  MEMB      172             0.0000000000
     21304       172  PMPE      H17S           32.6070614013      -20.0385717061       -9.2406283294  MEMB      172             0.0000000000
     21305       172  PMPE      C210           32.7047285602      -19.5296302832       -7.2117117969  MEMB      172             0.0000000000
     21306       172  PMPE      H10R           32.8405130084      -20.0198993315       -6.2240268245  MEMB      172             0.0000000000
     21307       172  PMPE      C211           31.5839495581      -18.4874274860       -7.5096187588  MEMB      172             0.0000000000
     21308       172  PMPE      H11R           30.5979245671      -18.9852119395       -7.3900931590  MEMB      172             0.0000000000
     21309       172  PMPE      H11S           31.5160717004      -18.1163305852       -8.5546066689  MEMB      172             0.0000000000
     21310       172  PMPE      C212           31.7080935764      -17.2005633317       -6.6366594298  MEMB      172             0.0000000000
     21311       172  PMPE      H12R           30.8990427759      -16.5011198375       -6.9375531816  MEMB      172             0.0000000000
     21312       172  PMPE      H12S           32.6473822434      -16.6772137973       -6.9162356535  MEMB      172             0.0000000000
     21313       172  PMPE      C213           31.7316351693      -17.4172397318       -5.1351569998  MEMB      172             0.0000000000
     21314       172  PMPE      H13R           32.6539935951      -17.9694490705       -4.8547273530  MEMB      172             0.0000000000
     21315       172  PMPE      H13S           30.7807687705      -17.9226320016       -4.8617473074  MEMB      172             0.0000000000
     21316       172  PMPE      C214           31.8599449519      -16.0687412565       -4.3108313820  MEMB      172             0.0000000000
     21317       172  PMPE      H14R           31.2791518615      -15.2583648275       -4.8010264450  MEMB      172             0.0000000000
     21318       172  PMPE      H14S           32.8949558237      -15.6649179855       -4.3104899085  MEMB      172             0.0000000000
     21319       172  PMPE      C215           31.3706899705      -16.3346051863       -2.8516377712  MEMB      172             0.0000000000
     21320       172  PMPE      H15R           32.1696490243      -16.9886518510       -2.4415061949  MEMB      172             0.0000000000
     21321       172  PMPE      H15S           30.3815396925      -16.8398184696       -2.8259044554  MEMB      172             0.0000000000
     21322       172  PMPE      C216           31.2295880740      -15.0523249436       -2.0045960791  MEMB      172             0.0000000000
     21323       172  PMPE      H16R           30.9720239375      -15.0559180601       -0.9238698349  MEMB      172             0.0000000000
     21324       172  PMPE      H16S           32.2797670109      -14.6911312573       -2.0359689086  MEMB      172             0.0000000000
     21325       172  PMPE      H16T           30.6414299104      -14.3024983192       -2.5756925466  MEMB      172             0.0000000000
     21326       172  PMPE      C33            34.3706599541      -13.2529151557      -11.4974263508  MEMB      172             0.0000000000
     21327       172  PMPE      H3X            34.8502076813      -12.5032345277      -12.1625086099  MEMB      172             0.0000000000
     21328       172  PMPE      H3Y            34.5254116395      -14.2061153103      -12.0467737306  MEMB      172             0.0000000000
     21329       172  PMPE      C34            35.2035900293      -13.1479636202      -10.2114033787  MEMB      172             0.0000000000
     21330       172  PMPE      H4X            35.0398946455      -12.1349998332       -9.7854581177  MEMB      172             0.0000000000
     21331       172  PMPE      H4Y            36.2644427416      -13.2348578489      -10.5297771289  MEMB      172             0.0000000000
     21332       172  PMPE      C35            35.1608762140      -14.2799011809       -9.2019115314  MEMB      172             0.0000000000
     21333       172  PMPE      H5X            35.5945523060      -15.1929739185       -9.6629362950  MEMB      172             0.0000000000
     21334       172  PMPE      H5Y            34.1059858185      -14.5481561426       -8.9792759227  MEMB      172             0.0000000000
     21335       172  PMPE      C36            35.8796486758      -13.8779294803       -7.8385124181  MEMB      172             0.0000000000
     21336       172  PMPE      H6X            36.7359592306      -13.1924518429       -8.0150743581  MEMB      172             0.0000000000
     21337       172  PMPE      H6Y            36.2256623269      -14.8140771966       -7.3504315130  MEMB      172             0.0000000000
     21338       172  PMPE      C37            35.0160907318      -13.2526816653       -6.8145883386  MEMB      172             0.0000000000
     21339       172  PMPE      H7X            34.4716058891      -14.0968816523       -6.3400539575  MEMB      172             0.0000000000
     21340       172  PMPE      H7Y            34.3082790437      -12.5082452116       -7.2378360044  MEMB      172             0.0000000000
     21341       172  PMPE      C38            35.9133104190      -12.6474896664       -5.7426442327  MEMB      172             0.0000000000
     21342       172  PMPE      H8X            35.1975657303      -12.2062691463       -5.0164525469  MEMB      172             0.0000000000
     21343       172  PMPE      H8Y            36.4870722680      -11.7863842060       -6.1471380610  MEMB      172             0.0000000000
     21344       172  PMPE      C39            36.7025180570      -13.6905865352       -4.9567133676  MEMB      172             0.0000000000
     21345       172  PMPE      H9X            37.1121674786      -13.3387905006       -3.9857610720  MEMB      172             0.0000000000
     21346       172  PMPE      H9Y            37.5598601180      -14.0330291161       -5.5747898252  MEMB      172             0.0000000000
     21347       172  PMPE      C310           35.9736733919      -14.9404980562       -4.4563908730  MEMB      172             0.0000000000
     21348       172  PMPE      H10X           35.3409710244      -15.4845298988       -5.1899009609  MEMB      172             0.0000000000
     21349       172  PMPE      H10Y           35.2716154062      -14.7579509571       -3.6148968305  MEMB      172             0.0000000000
     21350       172  PMPE      C311           36.9646508155      -15.9311851928       -3.8791250225  MEMB      172             0.0000000000
     21351       172  PMPE      H11X           37.6831356090      -15.4706017794       -3.1678142263  MEMB      172             0.0000000000
     21352       172  PMPE      H11Y           37.7105758914      -16.2175330884       -4.6510851505  MEMB      172             0.0000000000
     21353       172  PMPE      C312           36.3982515490      -17.1287434245       -3.1936269608  MEMB      172             0.0000000000
     21354       172  PMPE      H12X           35.5466660598      -17.0035125951       -2.4911731105  MEMB      172             0.0000000000
     21355       172  PMPE      H12Y           37.1298482627      -17.4810830866       -2.4353764453  MEMB      172             0.0000000000
     21356       172  PMPE      C313           36.1893709448      -18.3460976008       -4.1155347113  MEMB      172             0.0000000000
     21357       172  PMPE      H13X           36.9414094431      -18.3428410961       -4.9333051488  MEMB      172             0.0000000000
     21358       172  PMPE      H13Y           35.2239836023      -18.2950842018       -4.6630256787  MEMB      172             0.0000000000
     21359       172  PMPE      C314           36.4006182778      -19.7744547974       -3.5601863026  MEMB      172             0.0000000000
     21360       172  PMPE      H14X           37.4337817313      -19.9221111088       -3.1792772319  MEMB      172             0.0000000000
     21361       172  PMPE      H14Y           36.2586252109      -20.5183303922       -4.3730876454  MEMB      172             0.0000000000
     21362       172  PMPE      C315           35.4022190705      -20.2825148192       -2.5471425034  MEMB      172             0.0000000000
     21363       172  PMPE      H15X           35.3766449990      -19.7879432433       -1.5526234694  MEMB      172             0.0000000000
     21364       172  PMPE      H15Y           35.6385984210      -21.3272329617       -2.2521679869  MEMB      172             0.0000000000
     21365       172  PMPE      C316           33.8598675723      -20.1061034940       -2.8494281133  MEMB      172             0.0000000000
     21366       172  PMPE      H16X           33.5515833471      -20.5710307639       -3.8102217671  MEMB      172             0.0000000000
     21367       172  PMPE      H16Y           33.8419307942      -19.0009070444       -2.9614106184  MEMB      172             0.0000000000
     21368       172  PMPE      H16Z           33.1453690801      -20.5621544606       -2.1312139917  MEMB      172             0.0000000000
     21369       173  PMPE      N               2.8422713145      -35.8634318467      -20.7456253517  MEMB      173             0.0000000000
     21370       173  PMPE      HN1             2.4947653234      -36.2612937346      -21.6414743457  MEMB      173             0.0000000000
     21371       173  PMPE      HN2             2.0928190892      -35.7841134100      -20.0289455207  MEMB      173             0.0000000000
     21372       173  PMPE      HN3             3.1035145486      -34.8642176046      -20.8677830112  MEMB      173             0.0000000000
     21373       173  PMPE      C12             3.9010633451      -36.7022909223      -20.1721393170  MEMB      173             0.0000000000
     21374       173  PMPE      H12A            4.2390766457      -36.1195650094      -19.2886810330  MEMB      173             0.0000000000
     21375       173  PMPE      H12B            4.7583455258      -36.8291459281      -20.8673341941  MEMB      173             0.0000000000
     21376       173  PMPE      C11             3.2778011433      -38.0413412900      -19.6933951176  MEMB      173             0.0000000000
     21377       173  PMPE      H11A            3.9634337625      -38.5320202017      -18.9698875475  MEMB      173             0.0000000000
     21378       173  PMPE      H11B            2.9993428990      -38.6587721398      -20.5740545915  MEMB      173             0.0000000000
     21379       173  PMPE      P               1.1987506908      -38.9548426306      -18.2932676333  MEMB      173             0.0000000000
     21380       173  PMPE      O13             1.9706731631      -40.1718396866      -18.1198451255  MEMB      173             0.0000000000
     21381       173  PMPE      O14            -0.0494857682      -39.1609222212      -19.1457646968  MEMB      173             0.0000000000
     21382       173  PMPE      O11             0.8093809332      -38.4089676026      -16.8873264684  MEMB      173             0.0000000000
     21383       173  PMPE      O12             2.1198179740      -37.7969070007      -18.9426362911  MEMB      173             0.0000000000
     21384       173  PMPE      C1              0.4307679050      -37.0225372357      -16.7124617590  MEMB      173             0.0000000000
     21385       173  PMPE      HA             -0.4389951353      -36.9573576812      -16.0242866375  MEMB      173             0.0000000000
     21386       173  PMPE      HB              0.0981657696      -36.4804716365      -17.6234291602  MEMB      173             0.0000000000
     21387       173  PMPE      C2              1.5919294768      -36.0847419241      -16.1956752565  MEMB      173             0.0000000000
     21388       173  PMPE      HS              1.8063761399      -35.3455569395      -16.9968864047  MEMB      173             0.0000000000
     21389       173  PMPE      O21             2.7843379972      -36.8495757423      -15.9948307741  MEMB      173             0.0000000000
     21390       173  PMPE      C21             3.9454461439      -36.1779376473      -16.0329892353  MEMB      173             0.0000000000
     21391       173  PMPE      O22             4.0050081446      -34.9715165527      -16.0960554535  MEMB      173             0.0000000000
     21392       173  PMPE      C22             5.2011624294      -37.0960611968      -16.0350695468  MEMB      173             0.0000000000
     21393       173  PMPE      H2R             5.9514117381      -36.7590653310      -15.2881551014  MEMB      173             0.0000000000
     21394       173  PMPE      H2S             5.5711586398      -36.9283788481      -17.0691422602  MEMB      173             0.0000000000
     21395       173  PMPE      C3              1.2145998519      -35.4090685957      -14.8625645122  MEMB      173             0.0000000000
     21396       173  PMPE      HX              0.3119355292      -34.7628594358      -14.9065156297  MEMB      173             0.0000000000
     21397       173  PMPE      HY              1.8871945940      -34.6283864210      -14.4472662309  MEMB      173             0.0000000000
     21398       173  PMPE      O31             0.9199175453      -36.4356517388      -13.8869504196  MEMB      173             0.0000000000
     21399       173  PMPE      C31             1.7733160683      -36.6352848410      -12.9197646060  MEMB      173             0.0000000000
     21400       173  PMPE      O32             2.7938132326      -35.9950142457      -12.6524845896  MEMB      173             0.0000000000
     21401       173  PMPE      C32             1.3663511032      -37.9325637937      -12.1421489841  MEMB      173             0.0000000000
     21402       173  PMPE      H2X             0.4294063873      -37.7696234752      -11.5677743294  MEMB      173             0.0000000000
     21403       173  PMPE      H2Y             2.1784055881      -38.0161292873      -11.3885544891  MEMB      173             0.0000000000
     21404       173  PMPE      C23             4.8947943328      -38.5107930205      -15.7063370740  MEMB      173             0.0000000000
     21405       173  PMPE      H3R             5.7219097595      -39.0927009292      -16.1663198976  MEMB      173             0.0000000000
     21406       173  PMPE      H3S             3.9532052610      -38.8921657443      -16.1560991110  MEMB      173             0.0000000000
     21407       173  PMPE      C24             4.8350584959      -38.8399718458      -14.2191922285  MEMB      173             0.0000000000
     21408       173  PMPE      H4R             4.5335471289      -39.9064456035      -14.1414382772  MEMB      173             0.0000000000
     21409       173  PMPE      H4S             4.2999673369      -38.1178160550      -13.5661309724  MEMB      173             0.0000000000
     21410       173  PMPE      C25             6.2600199090      -38.8184446464      -13.5827466654  MEMB      173             0.0000000000
     21411       173  PMPE      H5R             6.5118678222      -37.7400964123      -13.4929765206  MEMB      173             0.0000000000
     21412       173  PMPE      H5S             7.0415916639      -39.1252873037      -14.3102866577  MEMB      173             0.0000000000
     21413       173  PMPE      C26             6.3376151441      -39.2766130553      -12.1075462651  MEMB      173             0.0000000000
     21414       173  PMPE      H6R             7.3653570331      -39.2152997289      -11.6900435658  MEMB      173             0.0000000000
     21415       173  PMPE      H6S             6.0413538818      -40.3472368472      -12.1252959542  MEMB      173             0.0000000000
     21416       173  PMPE      C27             5.3566961753      -38.5053470139      -11.2544304066  MEMB      173             0.0000000000
     21417       173  PMPE      H7R             4.3260636589      -38.7754627047      -11.5693185227  MEMB      173             0.0000000000
     21418       173  PMPE      H7S             5.4694686601      -37.4248295217      -11.4869924637  MEMB      173             0.0000000000
     21419       173  PMPE      C28             5.3634563659      -38.6977722032       -9.7355966973  MEMB      173             0.0000000000
     21420       173  PMPE      H8R             4.5379604100      -38.1026141273       -9.2898784700  MEMB      173             0.0000000000
     21421       173  PMPE      H8S             6.3491506862      -38.3564435774       -9.3532062903  MEMB      173             0.0000000000
     21422       173  PMPE      C29             5.4201065133      -40.1973566021       -9.2557272571  MEMB      173             0.0000000000
     21423       173  PMPE      H9R             6.2863445536      -40.7742260445       -9.6445384907  MEMB      173             0.0000000000
     21424       173  PMPE      C217            4.1223648516      -40.8879034757       -8.8117768954  MEMB      173             0.0000000000
     21425       173  PMPE      H17R            4.1651988642      -41.9680086071       -8.7452378800  MEMB      173             0.0000000000
     21426       173  PMPE      H17S            3.2927497010      -40.2617458328       -9.1160028447  MEMB      173             0.0000000000
     21427       173  PMPE      C210            5.1772471061      -40.3223762530       -7.7758595891  MEMB      173             0.0000000000
     21428       173  PMPE      H10R            5.5639974695      -41.2836823194       -7.3750662277  MEMB      173             0.0000000000
     21429       173  PMPE      C211            4.5784557391      -39.3284985024       -6.8232856394  MEMB      173             0.0000000000
     21430       173  PMPE      H11R            3.5784111961      -39.7480324596       -6.5819910225  MEMB      173             0.0000000000
     21431       173  PMPE      H11S            4.5968791226      -38.3013735099       -7.2463641938  MEMB      173             0.0000000000
     21432       173  PMPE      C212            5.2395181803      -39.1914562972       -5.4048824257  MEMB      173             0.0000000000
     21433       173  PMPE      H12R            4.6392236373      -38.4484213309       -4.8375494578  MEMB      173             0.0000000000
     21434       173  PMPE      H12S            6.2733431352      -38.8000856554       -5.5160411710  MEMB      173             0.0000000000
     21435       173  PMPE      C213            5.3248870928      -40.4542322059       -4.5315210445  MEMB      173             0.0000000000
     21436       173  PMPE      H13R            5.9422025747      -41.3078199000       -4.8845519969  MEMB      173             0.0000000000
     21437       173  PMPE      H13S            4.3425070038      -40.9708500291       -4.4829762397  MEMB      173             0.0000000000
     21438       173  PMPE      C214            5.8074864152      -40.3094403220       -2.9863922162  MEMB      173             0.0000000000
     21439       173  PMPE      H14R            6.8051694505      -39.8555300456       -2.8049666616  MEMB      173             0.0000000000
     21440       173  PMPE      H14S            5.7248521394      -41.3271256136       -2.5484308827  MEMB      173             0.0000000000
     21441       173  PMPE      C215            4.8618989278      -39.3493860242       -2.1800757660  MEMB      173             0.0000000000
     21442       173  PMPE      H15R            3.8493624507      -39.8034369235       -2.1259564204  MEMB      173             0.0000000000
     21443       173  PMPE      H15S            4.6972985135      -38.4004977297       -2.7340062528  MEMB      173             0.0000000000
     21444       173  PMPE      C216            5.4587461361      -38.8369826043       -0.8110309967  MEMB      173             0.0000000000
     21445       173  PMPE      H16R            4.8731056623      -37.9742804764       -0.4275075164  MEMB      173             0.0000000000
     21446       173  PMPE      H16S            5.2241262306      -39.5983390594       -0.0366872161  MEMB      173             0.0000000000
     21447       173  PMPE      H16T            6.5169641792      -38.5046169370       -0.8744985043  MEMB      173             0.0000000000
     21448       173  PMPE      C33             1.3066243810      -39.0832861920      -13.0779023182  MEMB      173             0.0000000000
     21449       173  PMPE      H3X             2.2118252396      -39.0403736173      -13.7206236988  MEMB      173             0.0000000000
     21450       173  PMPE      H3Y             0.4498320519      -38.9585943188      -13.7740917646  MEMB      173             0.0000000000
     21451       173  PMPE      C34             1.1493978530      -40.4461154773      -12.4233401641  MEMB      173             0.0000000000
     21452       173  PMPE      H4X             2.0121660446      -40.6648126181      -11.7584162113  MEMB      173             0.0000000000
     21453       173  PMPE      H4Y             1.0118424149      -41.1830731612      -13.2432749445  MEMB      173             0.0000000000
     21454       173  PMPE      C35            -0.1301228017      -40.6031368016      -11.5958641207  MEMB      173             0.0000000000
     21455       173  PMPE      H5X            -0.4700662109      -41.6575179936      -11.6797675729  MEMB      173             0.0000000000
     21456       173  PMPE      H5Y            -0.9362428128      -39.9001632944      -11.8963956987  MEMB      173             0.0000000000
     21457       173  PMPE      C36             0.1386857975      -40.4623729075      -10.0789102890  MEMB      173             0.0000000000
     21458       173  PMPE      H6X             0.5171719101      -39.4267337485       -9.9428178997  MEMB      173             0.0000000000
     21459       173  PMPE      H6Y             0.9081603074      -41.2536873634       -9.9522157379  MEMB      173             0.0000000000
     21460       173  PMPE      C37            -1.1370657030      -40.6298545497       -9.2479314782  MEMB      173             0.0000000000
     21461       173  PMPE      H7X            -1.6637866476      -41.5699670951       -9.5182560165  MEMB      173             0.0000000000
     21462       173  PMPE      H7Y            -1.8468635151      -39.8976997323       -9.6889049989  MEMB      173             0.0000000000
     21463       173  PMPE      C38            -0.9231174738      -40.6878513511       -7.7584142912  MEMB      173             0.0000000000
     21464       173  PMPE      H8X            -0.3950839837      -41.6606019183       -7.6621951693  MEMB      173             0.0000000000
     21465       173  PMPE      H8Y            -1.9387800208      -40.8659834396       -7.3448700301  MEMB      173             0.0000000000
     21466       173  PMPE      C39            -0.2472911455      -39.5257274581       -7.0056183629  MEMB      173             0.0000000000
     21467       173  PMPE      H9X            -0.7439577098      -38.5354489860       -7.0892380970  MEMB      173             0.0000000000
     21468       173  PMPE      H9Y             0.7814529346      -39.3721221142       -7.3960182291  MEMB      173             0.0000000000
     21469       173  PMPE      C310           -0.1133777419      -39.6782432677       -5.5186550638  MEMB      173             0.0000000000
     21470       173  PMPE      H10X            0.1970945623      -40.7104925675       -5.2496030699  MEMB      173             0.0000000000
     21471       173  PMPE      H10Y           -1.0920142890      -39.4791213094       -5.0318884968  MEMB      173             0.0000000000
     21472       173  PMPE      C311            0.9829654000      -38.7573157368       -4.9939797406  MEMB      173             0.0000000000
     21473       173  PMPE      H11X            1.8825936841      -38.7770688916       -5.6455930062  MEMB      173             0.0000000000
     21474       173  PMPE      H11Y            1.2505721346      -39.2403918248       -4.0299543575  MEMB      173             0.0000000000
     21475       173  PMPE      C312            0.4836963310      -37.2865497475       -4.8691374913  MEMB      173             0.0000000000
     21476       173  PMPE      H12X           -0.5111158432      -37.2338785626       -4.3773085263  MEMB      173             0.0000000000
     21477       173  PMPE      H12Y            0.4081264635      -36.8839144486       -5.9018502239  MEMB      173             0.0000000000
     21478       173  PMPE      C313            1.4572523584      -36.3771881134       -4.0247514970  MEMB      173             0.0000000000
     21479       173  PMPE      H13X            1.1475584837      -35.3459889165       -4.2986828953  MEMB      173             0.0000000000
     21480       173  PMPE      H13Y            2.5178889293      -36.5108086743       -4.3272683681  MEMB      173             0.0000000000
     21481       173  PMPE      C314            1.3771168743      -36.5989398545       -2.5299678579  MEMB      173             0.0000000000
     21482       173  PMPE      H14X            1.5073922729      -37.6991922250       -2.4475416828  MEMB      173             0.0000000000
     21483       173  PMPE      H14Y            0.3162295337      -36.3542250509       -2.3087126155  MEMB      173             0.0000000000
     21484       173  PMPE      C315            2.4209037132      -35.8147852670       -1.7164252848  MEMB      173             0.0000000000
     21485       173  PMPE      H15X            2.2437052555      -34.7181206566       -1.7321914876  MEMB      173             0.0000000000
     21486       173  PMPE      H15Y            3.4317200278      -35.9987217462       -2.1392000781  MEMB      173             0.0000000000
     21487       173  PMPE      C316            2.4297247553      -36.3501264970       -0.2418505966  MEMB      173             0.0000000000
     21488       173  PMPE      H16X            2.9497897368      -35.6113571657        0.4047363339  MEMB      173             0.0000000000
     21489       173  PMPE      H16Y            2.7828142714      -37.4027023119       -0.2002233808  MEMB      173             0.0000000000
     21490       173  PMPE      H16Z            1.3735313064      -36.4304450081        0.0933002448  MEMB      173             0.0000000000
     21491       174  POPE      N              33.4803538288      -10.4594886194      -19.7770438940  MEMB      174             0.0000000000
     21492       174  POPE      HN1            33.2972029707      -11.0706518328      -18.9557429240  MEMB      174             0.0000000000
     21493       174  POPE      HN2            33.2265677347       -9.5148074782      -19.4238157369  MEMB      174             0.0000000000
     21494       174  POPE      HN3            32.8666265519      -10.7163237899      -20.5764026054  MEMB      174             0.0000000000
     21495       174  POPE      C12            34.9726042885      -10.3845476425      -20.2491949823  MEMB      174             0.0000000000
     21496       174  POPE      H12A           35.0216135290       -9.6182524354      -21.0521338832  MEMB      174             0.0000000000
     21497       174  POPE      H12B           35.2071261164      -11.3582062053      -20.7301413618  MEMB      174             0.0000000000
     21498       174  POPE      C11            35.8952574377      -10.0660891572      -19.1058065053  MEMB      174             0.0000000000
     21499       174  POPE      H11A           35.7312682642      -10.7631513768      -18.2563756370  MEMB      174             0.0000000000
     21500       174  POPE      H11B           35.5758518139       -9.0889378962      -18.6845270089  MEMB      174             0.0000000000
     21501       174  POPE      P              38.3928717956       -9.3887192729      -18.5986730525  MEMB      174             0.0000000000
     21502       174  POPE      O13            37.9764275262       -7.9876871941      -18.3695659776  MEMB      174             0.0000000000
     21503       174  POPE      O14            39.6721926547       -9.6390111658      -19.2356911930  MEMB      174             0.0000000000
     21504       174  POPE      O11            38.3260570179      -10.1599605188      -17.2115419868  MEMB      174             0.0000000000
     21505       174  POPE      O12            37.2076786515      -10.0768152266      -19.4524824066  MEMB      174             0.0000000000
     21506       174  POPE      C1             39.4275725011      -10.3279959959      -16.3560852159  MEMB      174             0.0000000000
     21507       174  POPE      HA             40.2136244636       -9.5819450138      -16.6007300864  MEMB      174             0.0000000000
     21508       174  POPE      HB             39.7694780384      -11.3770968053      -16.4857348673  MEMB      174             0.0000000000
     21509       174  POPE      C2             39.0178984497      -10.0435684975      -14.8780835642  MEMB      174             0.0000000000
     21510       174  POPE      HS             39.7485419176      -10.4112208200      -14.1262108649  MEMB      174             0.0000000000
     21511       174  POPE      O21            37.7623013402      -10.6773251718      -14.6025762058  MEMB      174             0.0000000000
     21512       174  POPE      C21            37.8845717088      -12.0158791579      -14.5831365639  MEMB      174             0.0000000000
     21513       174  POPE      O22            38.7632459180      -12.7751114583      -14.8323273565  MEMB      174             0.0000000000
     21514       174  POPE      C22            36.5133008611      -12.4416379335      -14.0425459974  MEMB      174             0.0000000000
     21515       174  POPE      H2R            35.9891848953      -12.9660074950      -14.8699878598  MEMB      174             0.0000000000
     21516       174  POPE      H2S            35.8787947517      -11.6241655055      -13.6382416961  MEMB      174             0.0000000000
     21517       174  POPE      C3             38.8072054337       -8.4982800690      -14.7140384247  MEMB      174             0.0000000000
     21518       174  POPE      HX             38.0638750265       -8.1603112626      -15.4674027843  MEMB      174             0.0000000000
     21519       174  POPE      HY             39.7803715681       -7.9964669949      -14.9023260296  MEMB      174             0.0000000000
     21520       174  POPE      O31            38.3227909533       -8.2029072303      -13.3968110080  MEMB      174             0.0000000000
     21521       174  POPE      C31            37.8933686287       -6.9566131111      -13.0872749105  MEMB      174             0.0000000000
     21522       174  POPE      O32            38.0201645363       -5.9959448395      -13.7696147938  MEMB      174             0.0000000000
     21523       174  POPE      C32            37.0150406864       -7.0380247539      -11.8067146774  MEMB      174             0.0000000000
     21524       174  POPE      H2X            36.5841298750       -6.0285524720      -11.6346617183  MEMB      174             0.0000000000
     21525       174  POPE      H2Y            37.6457809165       -7.2789385491      -10.9244172455  MEMB      174             0.0000000000
     21526       174  POPE      C23            36.6160823633      -13.4079182143      -12.7752045273  MEMB      174             0.0000000000
     21527       174  POPE      H3R            37.2906146277      -14.2791548011      -12.9175914465  MEMB      174             0.0000000000
     21528       174  POPE      H3S            35.5743751343      -13.7793487724      -12.6693451374  MEMB      174             0.0000000000
     21529       174  POPE      C24            37.1221895902      -12.6611161245      -11.5173572661  MEMB      174             0.0000000000
     21530       174  POPE      H4R            36.8198649258      -13.2559746034      -10.6290650912  MEMB      174             0.0000000000
     21531       174  POPE      H4S            36.6025953680      -11.6791075501      -11.5159397976  MEMB      174             0.0000000000
     21532       174  POPE      C25            38.6889150140      -12.4260043544      -11.4395247562  MEMB      174             0.0000000000
     21533       174  POPE      H5R            39.1296954671      -12.0119750933      -12.3715188822  MEMB      174             0.0000000000
     21534       174  POPE      H5S            39.2283255724      -13.3718741315      -11.2188722005  MEMB      174             0.0000000000
     21535       174  POPE      C26            39.1610318303      -11.4812097017      -10.2911409456  MEMB      174             0.0000000000
     21536       174  POPE      H6R            38.7435025957      -10.4815265691      -10.5373604938  MEMB      174             0.0000000000
     21537       174  POPE      H6S            40.2491233208      -11.7035098296      -10.3221413886  MEMB      174             0.0000000000
     21538       174  POPE      C27            38.5670749275      -11.8771540270       -8.9332720508  MEMB      174             0.0000000000
     21539       174  POPE      H7R            38.7169431032      -12.9743764474       -8.8440333664  MEMB      174             0.0000000000
     21540       174  POPE      H7S            37.4637051421      -11.7961568503       -9.0349358097  MEMB      174             0.0000000000
     21541       174  POPE      C28            38.9043492282      -11.0362446898       -7.6657015335  MEMB      174             0.0000000000
     21542       174  POPE      H8R            39.9357426682      -11.2715381129       -7.3263111683  MEMB      174             0.0000000000
     21543       174  POPE      H8S            38.1932201744      -11.3110699572       -6.8575626753  MEMB      174             0.0000000000
     21544       174  POPE      C29            38.7260350147       -9.5664680653       -7.9860657389  MEMB      174             0.0000000000
     21545       174  POPE      H91            39.6026673893       -9.1945599808       -8.5367024295  MEMB      174             0.0000000000
     21546       174  POPE      C210           37.8569956742       -8.6860562732       -7.5800924443  MEMB      174             0.0000000000
     21547       174  POPE      H101           37.9521318049       -7.6382350031       -7.9010586317  MEMB      174             0.0000000000
     21548       174  POPE      C211           36.7427882439       -8.9440017961       -6.6646189266  MEMB      174             0.0000000000
     21549       174  POPE      H11R           36.4541298356      -10.0167268862       -6.6485619046  MEMB      174             0.0000000000
     21550       174  POPE      H11S           35.8468733303       -8.3367921223       -6.9155247537  MEMB      174             0.0000000000
     21551       174  POPE      C212           37.1870179119       -8.5595082554       -5.2852155512  MEMB      174             0.0000000000
     21552       174  POPE      H12R           37.3406482304       -7.4609721873       -5.2224701472  MEMB      174             0.0000000000
     21553       174  POPE      H12S           38.0526548334       -9.1325060493       -4.8894035021  MEMB      174             0.0000000000
     21554       174  POPE      C213           36.0862685565       -8.8502259212       -4.1352037634  MEMB      174             0.0000000000
     21555       174  POPE      H13R           36.4962278379       -8.6248359039       -3.1275070386  MEMB      174             0.0000000000
     21556       174  POPE      H13S           36.0368700632       -9.9601218582       -4.1317488575  MEMB      174             0.0000000000
     21557       174  POPE      C214           34.7477719823       -8.0985616654       -4.4035583234  MEMB      174             0.0000000000
     21558       174  POPE      H14R           34.3608634674       -8.4417156667       -5.3868528068  MEMB      174             0.0000000000
     21559       174  POPE      H14S           34.8126688311       -6.9945276660       -4.5094772407  MEMB      174             0.0000000000
     21560       174  POPE      C215           33.5767124590       -8.4680012600       -3.4253491407  MEMB      174             0.0000000000
     21561       174  POPE      H15R           32.6241912452       -8.1178354562       -3.8774645966  MEMB      174             0.0000000000
     21562       174  POPE      H15S           33.6386917701       -7.9630790058       -2.4376576124  MEMB      174             0.0000000000
     21563       174  POPE      C216           33.4985446738      -10.0343387977       -3.0749849528  MEMB      174             0.0000000000
     21564       174  POPE      H16R           34.2810934040      -10.4808903644       -2.4249611984  MEMB      174             0.0000000000
     21565       174  POPE      H16S           33.3598056715      -10.5399167662       -4.0545069225  MEMB      174             0.0000000000
     21566       174  POPE      C217           32.0913877759      -10.4151809505       -2.5030678124  MEMB      174             0.0000000000
     21567       174  POPE      H17R           31.4259627257       -9.7319965988       -3.0729718431  MEMB      174             0.0000000000
     21568       174  POPE      H17S           32.2861742654      -10.0778835249       -1.4625830524  MEMB      174             0.0000000000
     21569       174  POPE      C218           31.7055211202      -11.9087766889       -2.4830106977  MEMB      174             0.0000000000
     21570       174  POPE      H18R           30.6180602415      -11.9604249448       -2.2614674020  MEMB      174             0.0000000000
     21571       174  POPE      H18S           32.3961266666      -12.4420381261       -1.7952489013  MEMB      174             0.0000000000
     21572       174  POPE      H18T           31.8551656899      -12.2741143324       -3.5214982105  MEMB      174             0.0000000000
     21573       174  POPE      C33            35.9262838260       -8.0305446966      -12.0351514741  MEMB      174             0.0000000000
     21574       174  POPE      H3X            36.2670596578       -9.0811362600      -12.1553606239  MEMB      174             0.0000000000
     21575       174  POPE      H3Y            35.5179558980       -7.9219495715      -13.0626708223  MEMB      174             0.0000000000
     21576       174  POPE      C34            34.6559100309       -7.7763187346      -11.1896654644  MEMB      174             0.0000000000
     21577       174  POPE      H4X            33.8334860189       -8.3369737386      -11.6832299774  MEMB      174             0.0000000000
     21578       174  POPE      H4Y            34.5088117996       -6.6750999928      -11.1903061610  MEMB      174             0.0000000000
     21579       174  POPE      C35            34.7738602280       -8.4508389951       -9.8238711761  MEMB      174             0.0000000000
     21580       174  POPE      H5X            33.9154476873       -8.0775042462       -9.2254819763  MEMB      174             0.0000000000
     21581       174  POPE      H5Y            35.6601711446       -8.1582143064       -9.2212563520  MEMB      174             0.0000000000
     21582       174  POPE      C36            34.7003126354       -9.9873960289       -9.7954489000  MEMB      174             0.0000000000
     21583       174  POPE      H6X            35.7016860308      -10.3471821843       -9.4758777936  MEMB      174             0.0000000000
     21584       174  POPE      H6Y            34.4340781990      -10.5177861446      -10.7346649224  MEMB      174             0.0000000000
     21585       174  POPE      C37            33.6867347062      -10.4098892561       -8.7181006282  MEMB      174             0.0000000000
     21586       174  POPE      H7X            32.6805892703      -10.0327464600       -9.0005104412  MEMB      174             0.0000000000
     21587       174  POPE      H7Y            33.9425938941       -9.9313201980       -7.7486529203  MEMB      174             0.0000000000
     21588       174  POPE      C38            33.5093957725      -11.9116601124       -8.5027458268  MEMB      174             0.0000000000
     21589       174  POPE      H8X            33.5684440242      -12.4031688058       -9.4973581094  MEMB      174             0.0000000000
     21590       174  POPE      H8Y            32.4824127086      -12.2109006795       -8.2026094073  MEMB      174             0.0000000000
     21591       174  POPE      C39            34.5355285819      -12.4818100790       -7.4348688601  MEMB      174             0.0000000000
     21592       174  POPE      H9X            35.5744571040      -12.1132202399       -7.5730340842  MEMB      174             0.0000000000
     21593       174  POPE      H9Y            34.4762326593      -13.5706897808       -7.6473450528  MEMB      174             0.0000000000
     21594       174  POPE      C310           34.1468619660      -12.2331738705       -6.0227098108  MEMB      174             0.0000000000
     21595       174  POPE      H10X           33.0693429916      -12.3165009877       -5.7651623430  MEMB      174             0.0000000000
     21596       174  POPE      H10Y           34.5356359918      -11.2097032851       -5.8338087448  MEMB      174             0.0000000000
     21597       174  POPE      C311           34.9027689759      -13.1284825704       -4.9329359571  MEMB      174             0.0000000000
     21598       174  POPE      H11X           34.7942865289      -14.2285977428       -5.0438375077  MEMB      174             0.0000000000
     21599       174  POPE      H11Y           34.6469803328      -12.9195139789       -3.8721692120  MEMB      174             0.0000000000
     21600       174  POPE      C312           36.3924607680      -12.7969356240       -4.9705227918  MEMB      174             0.0000000000
     21601       174  POPE      H12X           36.4715182586      -11.7012930183       -4.8042755402  MEMB      174             0.0000000000
     21602       174  POPE      H12Y           36.7854632414      -12.8897151387       -6.0055411652  MEMB      174             0.0000000000
     21603       174  POPE      C313           37.2677683055      -13.5764339642       -3.9587132999  MEMB      174             0.0000000000
     21604       174  POPE      H13X           38.3147924419      -13.3940911716       -4.2824610178  MEMB      174             0.0000000000
     21605       174  POPE      H13Y           36.9196676872      -14.6274892330       -4.0505269077  MEMB      174             0.0000000000
     21606       174  POPE      C314           37.1417991334      -12.9742908353       -2.5112070757  MEMB      174             0.0000000000
     21607       174  POPE      H14X           36.0717314719      -13.0546077827       -2.2234117725  MEMB      174             0.0000000000
     21608       174  POPE      H14Y           37.3907942573      -11.8927198326       -2.4609460886  MEMB      174             0.0000000000
     21609       174  POPE      C315           38.0522782889      -13.6756982761       -1.4662808781  MEMB      174             0.0000000000
     21610       174  POPE      H15X           37.7637335037      -14.7251840245       -1.2434766076  MEMB      174             0.0000000000
     21611       174  POPE      H15Y           38.0510739950      -13.0332208356       -0.5598911850  MEMB      174             0.0000000000
     21612       174  POPE      C316           39.5256401706      -13.6777406151       -1.8221101006  MEMB      174             0.0000000000
     21613       174  POPE      H16X           39.7558257447      -14.4593067520       -2.5774192535  MEMB      174             0.0000000000
     21614       174  POPE      H16Y           40.1041032536      -13.9190921773       -0.9048052219  MEMB      174             0.0000000000
     21615       174  POPE      H16Z           39.8658417198      -12.6939856957       -2.2104543900  MEMB      174             0.0000000000
     21616       175  POPE      N             -34.0435393318      -21.8903571859      -18.4704417273  MEMB      175             0.0000000000
     21617       175  POPE      HN1           -34.7441723081      -22.0654605718      -19.2188081672  MEMB      175             0.0000000000
     21618       175  POPE      HN2           -34.6158694067      -21.6359653314      -17.6401869254  MEMB      175             0.0000000000
     21619       175  POPE      HN3           -33.2380288762      -21.2721542017      -18.6953370193  MEMB      175             0.0000000000
     21620       175  POPE      C12           -33.4641720154      -23.2181641688      -18.1222883777  MEMB      175             0.0000000000
     21621       175  POPE      H12A          -34.2592408032      -23.8377444416      -17.6550550743  MEMB      175             0.0000000000
     21622       175  POPE      H12B          -32.7948814202      -22.8972369261      -17.2956222647  MEMB      175             0.0000000000
     21623       175  POPE      C11           -32.6503999807      -23.8647431857      -19.2138912274  MEMB      175             0.0000000000
     21624       175  POPE      H11A          -33.3736125304      -24.3054055492      -19.9329886662  MEMB      175             0.0000000000
     21625       175  POPE      H11B          -32.0451847533      -24.6703965976      -18.7459615522  MEMB      175             0.0000000000
     21626       175  POPE      P             -30.2553299918      -22.6268189795      -19.2955665907  MEMB      175             0.0000000000
     21627       175  POPE      O13           -29.5072487901      -21.9039792619      -20.3012718760  MEMB      175             0.0000000000
     21628       175  POPE      O14           -29.7086419483      -23.8588558602      -18.7167974084  MEMB      175             0.0000000000
     21629       175  POPE      O11           -30.6068346805      -21.7205468058      -18.0175966008  MEMB      175             0.0000000000
     21630       175  POPE      O12           -31.6930676597      -22.9687153506      -19.8621461918  MEMB      175             0.0000000000
     21631       175  POPE      C1            -30.8182890482      -20.3511802164      -18.2437014189  MEMB      175             0.0000000000
     21632       175  POPE      HA            -31.8210943438      -20.2371854373      -18.7081449078  MEMB      175             0.0000000000
     21633       175  POPE      HB            -30.0758037648      -19.8669547949      -18.9134493555  MEMB      175             0.0000000000
     21634       175  POPE      C2            -30.9409128424      -19.5506682129      -16.9466497729  MEMB      175             0.0000000000
     21635       175  POPE      HS            -30.5370322279      -18.5238152781      -17.0761669356  MEMB      175             0.0000000000
     21636       175  POPE      O21           -30.0863417576      -20.0494161339      -15.8131822706  MEMB      175             0.0000000000
     21637       175  POPE      C21           -28.8820442607      -20.3209899966      -16.0112012756  MEMB      175             0.0000000000
     21638       175  POPE      O22           -28.2150201060      -20.1593100257      -17.0245032286  MEMB      175             0.0000000000
     21639       175  POPE      C22           -28.3121350483      -20.8787247668      -14.7405339321  MEMB      175             0.0000000000
     21640       175  POPE      H2R           -27.2775925386      -20.5065120406      -14.5808445817  MEMB      175             0.0000000000
     21641       175  POPE      H2S           -28.2609179919      -21.9885197332      -14.7332510399  MEMB      175             0.0000000000
     21642       175  POPE      C3            -32.3511780940      -19.4235898395      -16.3591093396  MEMB      175             0.0000000000
     21643       175  POPE      HX            -33.1285762747      -19.9989397924      -16.9058683890  MEMB      175             0.0000000000
     21644       175  POPE      HY            -32.5391225092      -18.3395266791      -16.5133991580  MEMB      175             0.0000000000
     21645       175  POPE      O31           -32.3822231731      -19.7096676335      -14.9874027734  MEMB      175             0.0000000000
     21646       175  POPE      C31           -33.2832667964      -20.5443965880      -14.5065079100  MEMB      175             0.0000000000
     21647       175  POPE      O32           -33.8828328228      -21.3694943685      -15.1653370975  MEMB      175             0.0000000000
     21648       175  POPE      C32           -33.4468678610      -20.4186410902      -12.9496014365  MEMB      175             0.0000000000
     21649       175  POPE      H2X           -34.2849256698      -19.7747542594      -12.6069789306  MEMB      175             0.0000000000
     21650       175  POPE      H2Y           -32.4844022060      -20.0625329835      -12.5239630468  MEMB      175             0.0000000000
     21651       175  POPE      C23           -29.0739200499      -20.4417199905      -13.4497773553  MEMB      175             0.0000000000
     21652       175  POPE      H3R           -30.0299521507      -21.0069593540      -13.4210028348  MEMB      175             0.0000000000
     21653       175  POPE      H3S           -29.1572031320      -19.3358679744      -13.5166847850  MEMB      175             0.0000000000
     21654       175  POPE      C24           -28.2679066796      -20.7990486345      -12.2533806299  MEMB      175             0.0000000000
     21655       175  POPE      H4R           -27.2637888375      -20.3369073925      -12.3651576209  MEMB      175             0.0000000000
     21656       175  POPE      H4S           -27.9691691261      -21.8641901052      -12.3560970409  MEMB      175             0.0000000000
     21657       175  POPE      C25           -28.7562528757      -20.3823505872      -10.8503878566  MEMB      175             0.0000000000
     21658       175  POPE      H5R           -28.8052723211      -19.2794994475      -10.7253381039  MEMB      175             0.0000000000
     21659       175  POPE      H5S           -28.0375484774      -20.6953326636      -10.0630972408  MEMB      175             0.0000000000
     21660       175  POPE      C26           -30.1640115088      -20.9140737266      -10.4452790557  MEMB      175             0.0000000000
     21661       175  POPE      H6R           -30.0340199549      -22.0132920884      -10.3496643171  MEMB      175             0.0000000000
     21662       175  POPE      H6S           -30.8818973066      -20.7623421539      -11.2795081266  MEMB      175             0.0000000000
     21663       175  POPE      C27           -30.7046255285      -20.4835894329       -9.1752834639  MEMB      175             0.0000000000
     21664       175  POPE      H7R           -30.6324902935      -19.3831200161       -9.0408062363  MEMB      175             0.0000000000
     21665       175  POPE      H7S           -30.1820558666      -20.9255454538       -8.3001168244  MEMB      175             0.0000000000
     21666       175  POPE      C28           -32.2150101937      -20.8179209040       -8.9193595916  MEMB      175             0.0000000000
     21667       175  POPE      H8R           -32.6499152524      -20.4423888085       -9.8702298294  MEMB      175             0.0000000000
     21668       175  POPE      H8S           -32.6310424433      -20.1577863410       -8.1284984425  MEMB      175             0.0000000000
     21669       175  POPE      C29           -32.4964704328      -22.2495222437       -8.6685950026  MEMB      175             0.0000000000
     21670       175  POPE      H91           -32.4068809022      -22.9538350974       -9.5087836237  MEMB      175             0.0000000000
     21671       175  POPE      C210          -33.1362950030      -22.7404186426       -7.5913990642  MEMB      175             0.0000000000
     21672       175  POPE      H101          -33.3307317744      -23.8190991098       -7.6843656137  MEMB      175             0.0000000000
     21673       175  POPE      C211          -33.6945761508      -21.9881992987       -6.3716264383  MEMB      175             0.0000000000
     21674       175  POPE      H11R          -34.5392971737      -22.6381752668       -6.0580996353  MEMB      175             0.0000000000
     21675       175  POPE      H11S          -34.0943335705      -21.0144533869       -6.7270612809  MEMB      175             0.0000000000
     21676       175  POPE      C212          -32.5376766201      -21.8688671771       -5.4041260908  MEMB      175             0.0000000000
     21677       175  POPE      H12R          -31.6025653164      -21.5954898759       -5.9381224263  MEMB      175             0.0000000000
     21678       175  POPE      H12S          -32.3974228315      -22.9072306206       -5.0347333609  MEMB      175             0.0000000000
     21679       175  POPE      C213          -32.5678101724      -20.8209295209       -4.3005369189  MEMB      175             0.0000000000
     21680       175  POPE      H13R          -33.5364558810      -20.8919144453       -3.7610854881  MEMB      175             0.0000000000
     21681       175  POPE      H13S          -32.4818110562      -19.8417883400       -4.8184240319  MEMB      175             0.0000000000
     21682       175  POPE      C214          -31.4927949798      -20.9460017877       -3.2556543027  MEMB      175             0.0000000000
     21683       175  POPE      H14R          -30.5473075152      -20.8890557542       -3.8362850556  MEMB      175             0.0000000000
     21684       175  POPE      H14S          -31.5588656374      -21.8921889082       -2.6771345142  MEMB      175             0.0000000000
     21685       175  POPE      C215          -31.4578731920      -19.7750191187       -2.2084838184  MEMB      175             0.0000000000
     21686       175  POPE      H15R          -32.5350426149      -19.5210925701       -2.1107695803  MEMB      175             0.0000000000
     21687       175  POPE      H15S          -30.8641521150      -18.9575849949       -2.6706726635  MEMB      175             0.0000000000
     21688       175  POPE      C216          -30.8788991395      -20.2034264511       -0.8648143852  MEMB      175             0.0000000000
     21689       175  POPE      H16R          -31.4469598430      -21.0781043202       -0.4819747975  MEMB      175             0.0000000000
     21690       175  POPE      H16S          -31.1375194617      -19.4075571370       -0.1340431642  MEMB      175             0.0000000000
     21691       175  POPE      C217          -29.3923263860      -20.3393014316       -0.9178067536  MEMB      175             0.0000000000
     21692       175  POPE      H17R          -28.9184461083      -19.3915460786       -1.2517500342  MEMB      175             0.0000000000
     21693       175  POPE      H17S          -29.0523671751      -21.0890801314       -1.6638493084  MEMB      175             0.0000000000
     21694       175  POPE      C218          -28.6435628068      -20.7386155109        0.3533915277  MEMB      175             0.0000000000
     21695       175  POPE      H18R          -28.9812840171      -20.1521328490        1.2344712636  MEMB      175             0.0000000000
     21696       175  POPE      H18S          -27.5358396113      -20.8004438550        0.2946777214  MEMB      175             0.0000000000
     21697       175  POPE      H18T          -29.0623516203      -21.7441929652        0.5719115089  MEMB      175             0.0000000000
     21698       175  POPE      C33           -33.7847650537      -21.8545604720      -12.3318771983  MEMB      175             0.0000000000
     21699       175  POPE      H3X           -34.7060322275      -22.1538163851      -12.8759671962  MEMB      175             0.0000000000
     21700       175  POPE      H3Y           -34.0297070768      -21.6450840799      -11.2686538249  MEMB      175             0.0000000000
     21701       175  POPE      C34           -32.6891541259      -22.9457979243      -12.5395986595  MEMB      175             0.0000000000
     21702       175  POPE      H4X           -31.7805793583      -22.5329147332      -12.0513975301  MEMB      175             0.0000000000
     21703       175  POPE      H4Y           -32.2836562582      -23.0746712645      -13.5658952300  MEMB      175             0.0000000000
     21704       175  POPE      C35           -33.2259088672      -24.3266581287      -12.0438402186  MEMB      175             0.0000000000
     21705       175  POPE      H5X           -34.1275620837      -24.7102542025      -12.5674781267  MEMB      175             0.0000000000
     21706       175  POPE      H5Y           -33.4641657649      -24.3069606878      -10.9588671795  MEMB      175             0.0000000000
     21707       175  POPE      C36           -32.1236817704      -25.4832207107      -12.1453673112  MEMB      175             0.0000000000
     21708       175  POPE      H6X           -31.7915933549      -25.5422878633      -13.2039273332  MEMB      175             0.0000000000
     21709       175  POPE      H6Y           -32.6917745771      -26.4124667610      -11.9260651253  MEMB      175             0.0000000000
     21710       175  POPE      C37           -31.0258029383      -25.1601522411      -11.1307250641  MEMB      175             0.0000000000
     21711       175  POPE      H7X           -30.7245324876      -24.0953228135      -11.2291898170  MEMB      175             0.0000000000
     21712       175  POPE      H7Y           -30.1051142549      -25.6810652045      -11.4702876482  MEMB      175             0.0000000000
     21713       175  POPE      C38           -31.3269730101      -25.5473129476       -9.6209555992  MEMB      175             0.0000000000
     21714       175  POPE      H8X           -31.5846775305      -26.6260374464       -9.6862445403  MEMB      175             0.0000000000
     21715       175  POPE      H8Y           -32.1693021604      -24.9782650942       -9.1726394982  MEMB      175             0.0000000000
     21716       175  POPE      C39           -30.0888798456      -25.3567365546       -8.8404059735  MEMB      175             0.0000000000
     21717       175  POPE      H9X           -29.9605423174      -24.2539552118       -8.8819224417  MEMB      175             0.0000000000
     21718       175  POPE      H9Y           -29.1571438933      -25.7719135971       -9.2806525516  MEMB      175             0.0000000000
     21719       175  POPE      C310          -30.1552899685      -25.8875710005       -7.4002903384  MEMB      175             0.0000000000
     21720       175  POPE      H10X          -31.0285440748      -25.4402157073       -6.8791168826  MEMB      175             0.0000000000
     21721       175  POPE      H10Y          -29.2952979336      -25.5456943533       -6.7855910073  MEMB      175             0.0000000000
     21722       175  POPE      C311          -30.0210994342      -27.4532529877       -7.1938550090  MEMB      175             0.0000000000
     21723       175  POPE      H11X          -29.1262075321      -27.8694719633       -7.7040038261  MEMB      175             0.0000000000
     21724       175  POPE      H11Y          -30.8632264488      -27.9212220644       -7.7471616484  MEMB      175             0.0000000000
     21725       175  POPE      C312          -30.1826917877      -27.8457183612       -5.6932029851  MEMB      175             0.0000000000
     21726       175  POPE      H12X          -30.3639343264      -28.9327686832       -5.5525116429  MEMB      175             0.0000000000
     21727       175  POPE      H12Y          -31.0146408163      -27.2554585224       -5.2530051661  MEMB      175             0.0000000000
     21728       175  POPE      C313          -28.9058416999      -27.6594748427       -4.8741766708  MEMB      175             0.0000000000
     21729       175  POPE      H13X          -28.5639204809      -26.6252129455       -5.0926108649  MEMB      175             0.0000000000
     21730       175  POPE      H13Y          -28.0957777818      -28.2835887732       -5.3084576452  MEMB      175             0.0000000000
     21731       175  POPE      C314          -29.0063219360      -27.8844411052       -3.3660806761  MEMB      175             0.0000000000
     21732       175  POPE      H14X          -27.9768622126      -27.9914797367       -2.9622539911  MEMB      175             0.0000000000
     21733       175  POPE      H14Y          -29.6380895372      -28.7679804268       -3.1325226432  MEMB      175             0.0000000000
     21734       175  POPE      C315          -29.6413568916      -26.7210979865       -2.6333480525  MEMB      175             0.0000000000
     21735       175  POPE      H15X          -29.7505447547      -26.8819645736       -1.5394923017  MEMB      175             0.0000000000
     21736       175  POPE      H15Y          -30.6716624813      -26.4456794563       -2.9446926789  MEMB      175             0.0000000000
     21737       175  POPE      C316          -28.8703642320      -25.3511017843       -2.7373384322  MEMB      175             0.0000000000
     21738       175  POPE      H16X          -29.1981189356      -24.6316692014       -1.9567513076  MEMB      175             0.0000000000
     21739       175  POPE      H16Y          -29.0078951382      -24.9056566569       -3.7457943717  MEMB      175             0.0000000000
     21740       175  POPE      H16Z          -27.7597030732      -25.3624203266       -2.7123451390  MEMB      175             0.0000000000
     21741       176  PMPE      N             -24.8645989260      -27.8417527678      -16.6445558293  MEMB      176             0.0000000000
     21742       176  PMPE      HN1           -24.2485171418      -27.6263534763      -15.8348358579  MEMB      176             0.0000000000
     21743       176  PMPE      HN2           -25.1585243183      -26.9572659732      -17.1059567992  MEMB      176             0.0000000000
     21744       176  PMPE      HN3           -25.7529484513      -28.2831037340      -16.3320746227  MEMB      176             0.0000000000
     21745       176  PMPE      C12           -24.2162860805      -28.7533811279      -17.5678541222  MEMB      176             0.0000000000
     21746       176  PMPE      H12A          -23.5237259285      -29.4393286120      -17.0347900686  MEMB      176             0.0000000000
     21747       176  PMPE      H12B          -23.7092295831      -28.1714098298      -18.3669310354  MEMB      176             0.0000000000
     21748       176  PMPE      C11           -25.2779964530      -29.6427503564      -18.2379846008  MEMB      176             0.0000000000
     21749       176  PMPE      H11A          -25.8514279791      -30.0768054459      -17.3911708066  MEMB      176             0.0000000000
     21750       176  PMPE      H11B          -24.8047195169      -30.4826194779      -18.7902071505  MEMB      176             0.0000000000
     21751       176  PMPE      P             -27.1987159481      -29.5773046148      -20.0148584042  MEMB      176             0.0000000000
     21752       176  PMPE      O13           -26.6077851540      -30.0430179957      -21.2571187797  MEMB      176             0.0000000000
     21753       176  PMPE      O14           -28.3702471809      -28.6296444613      -20.0129895780  MEMB      176             0.0000000000
     21754       176  PMPE      O11           -27.5617327107      -30.8480722101      -19.1234041954  MEMB      176             0.0000000000
     21755       176  PMPE      O12           -26.0225311782      -28.8054260680      -19.1412344657  MEMB      176             0.0000000000
     21756       176  PMPE      C1            -28.7245675610      -31.4752618176      -19.5019789990  MEMB      176             0.0000000000
     21757       176  PMPE      HA            -28.6014675768      -32.0908189087      -20.4186342790  MEMB      176             0.0000000000
     21758       176  PMPE      HB            -29.5984505506      -30.7970034655      -19.6050092396  MEMB      176             0.0000000000
     21759       176  PMPE      C2            -29.1609533961      -32.4087239317      -18.3368690862  MEMB      176             0.0000000000
     21760       176  PMPE      HS            -30.1982412573      -32.7645778299      -18.5149786104  MEMB      176             0.0000000000
     21761       176  PMPE      O21           -29.0521933234      -31.7664757590      -17.0369050881  MEMB      176             0.0000000000
     21762       176  PMPE      C21           -30.0692255525      -31.0268349724      -16.6676663288  MEMB      176             0.0000000000
     21763       176  PMPE      O22           -31.1336783022      -30.8453063555      -17.2069538876  MEMB      176             0.0000000000
     21764       176  PMPE      C22           -29.6572877287      -30.4707404385      -15.3334849176  MEMB      176             0.0000000000
     21765       176  PMPE      H2R           -28.6304657324      -30.0696405759      -15.4716036768  MEMB      176             0.0000000000
     21766       176  PMPE      H2S           -29.6663360660      -31.2537404822      -14.5453542631  MEMB      176             0.0000000000
     21767       176  PMPE      C3            -28.3646637269      -33.7961538517      -18.2385907830  MEMB      176             0.0000000000
     21768       176  PMPE      HX            -28.4252986604      -34.3141965439      -19.2195475925  MEMB      176             0.0000000000
     21769       176  PMPE      HY            -28.9606117116      -34.3730573871      -17.4994362239  MEMB      176             0.0000000000
     21770       176  PMPE      O31           -26.9949191018      -33.5319114041      -17.8413490398  MEMB      176             0.0000000000
     21771       176  PMPE      C31           -26.6605198191      -33.5273656481      -16.5277982511  MEMB      176             0.0000000000
     21772       176  PMPE      O32           -27.4696119418      -33.3937877664      -15.6315227461  MEMB      176             0.0000000000
     21773       176  PMPE      C32           -25.1365793291      -33.6299920700      -16.3568590180  MEMB      176             0.0000000000
     21774       176  PMPE      H2X           -24.6345801855      -32.6654170106      -16.5847024267  MEMB      176             0.0000000000
     21775       176  PMPE      H2Y           -24.8502643577      -34.4225112385      -17.0809159503  MEMB      176             0.0000000000
     21776       176  PMPE      C23           -30.6022692975      -29.3421910422      -14.8143681044  MEMB      176             0.0000000000
     21777       176  PMPE      H3R           -31.6430113696      -29.6829300101      -15.0016486106  MEMB      176             0.0000000000
     21778       176  PMPE      H3S           -30.5104600373      -28.4417449091      -15.4586418770  MEMB      176             0.0000000000
     21779       176  PMPE      C24           -30.3789653441      -29.0376693987      -13.3682899167  MEMB      176             0.0000000000
     21780       176  PMPE      H4R           -30.5416918148      -30.0384530383      -12.9141164692  MEMB      176             0.0000000000
     21781       176  PMPE      H4S           -31.2370205561      -28.3730705517      -13.1308647191  MEMB      176             0.0000000000
     21782       176  PMPE      C25           -29.0919510061      -28.3165922246      -13.0219146483  MEMB      176             0.0000000000
     21783       176  PMPE      H5R           -28.6714759285      -27.5699301838      -13.7290341895  MEMB      176             0.0000000000
     21784       176  PMPE      H5S           -28.2405568836      -29.0244264002      -12.9301554235  MEMB      176             0.0000000000
     21785       176  PMPE      C26           -29.3935107094      -27.6656812724      -11.6659128885  MEMB      176             0.0000000000
     21786       176  PMPE      H6R           -29.3421401042      -28.4988119763      -10.9327173401  MEMB      176             0.0000000000
     21787       176  PMPE      H6S           -30.3195055792      -27.0614214376      -11.7741936041  MEMB      176             0.0000000000
     21788       176  PMPE      C27           -28.2239234747      -26.7733111257      -11.1191568054  MEMB      176             0.0000000000
     21789       176  PMPE      H7R           -28.3548173041      -25.7932548333      -11.6257904919  MEMB      176             0.0000000000
     21790       176  PMPE      H7S           -27.2058945403      -27.1293122745      -11.3859925057  MEMB      176             0.0000000000
     21791       176  PMPE      C28           -28.1919286936      -26.4897940402       -9.5811344174  MEMB      176             0.0000000000
     21792       176  PMPE      H8R           -27.5907553654      -27.2693349425       -9.0661323588  MEMB      176             0.0000000000
     21793       176  PMPE      H8S           -29.2544033071      -26.5459787785       -9.2612720665  MEMB      176             0.0000000000
     21794       176  PMPE      C29           -27.4956472877      -25.1217995186       -9.2968873815  MEMB      176             0.0000000000
     21795       176  PMPE      H9R           -27.6242610029      -24.3082785928      -10.0425169247  MEMB      176             0.0000000000
     21796       176  PMPE      C217          -25.9978539642      -25.3527129874       -8.9040945063  MEMB      176             0.0000000000
     21797       176  PMPE      H17R          -25.2406216691      -24.6469748115       -9.2225626435  MEMB      176             0.0000000000
     21798       176  PMPE      H17S          -25.7150518824      -26.3219371191       -8.5122822880  MEMB      176             0.0000000000
     21799       176  PMPE      C210          -27.0627498536      -24.7433400405       -7.8830350200  MEMB      176             0.0000000000
     21800       176  PMPE      H10R          -26.6622889427      -23.7138843180       -7.7639863563  MEMB      176             0.0000000000
     21801       176  PMPE      C211          -27.1086019676      -25.7615876702       -6.7745544449  MEMB      176             0.0000000000
     21802       176  PMPE      H11R          -26.1606011844      -25.7907207312       -6.1959648741  MEMB      176             0.0000000000
     21803       176  PMPE      H11S          -27.2622125466      -26.8092672334       -7.1108474288  MEMB      176             0.0000000000
     21804       176  PMPE      C212          -28.2621793126      -25.5040864645       -5.8407339879  MEMB      176             0.0000000000
     21805       176  PMPE      H12R          -29.1551040236      -25.3347982607       -6.4797549742  MEMB      176             0.0000000000
     21806       176  PMPE      H12S          -28.0729171439      -24.6459312438       -5.1609753533  MEMB      176             0.0000000000
     21807       176  PMPE      C213          -28.6198095009      -26.6157889077       -4.8735633486  MEMB      176             0.0000000000
     21808       176  PMPE      H13R          -28.6506036484      -27.5552225027       -5.4658784143  MEMB      176             0.0000000000
     21809       176  PMPE      H13S          -29.6194972319      -26.4776280446       -4.4089585339  MEMB      176             0.0000000000
     21810       176  PMPE      C214          -27.5377983390      -26.6733604632       -3.7639884886  MEMB      176             0.0000000000
     21811       176  PMPE      H14R          -26.5349774645      -26.4998713412       -4.2096038973  MEMB      176             0.0000000000
     21812       176  PMPE      H14S          -27.6295558959      -27.6112056085       -3.1754748718  MEMB      176             0.0000000000
     21813       176  PMPE      C215          -27.6743901504      -25.5143781344       -2.6484319191  MEMB      176             0.0000000000
     21814       176  PMPE      H15R          -27.4314446820      -24.5476605533       -3.1390997341  MEMB      176             0.0000000000
     21815       176  PMPE      H15S          -26.8202491933      -25.6700806789       -1.9552349955  MEMB      176             0.0000000000
     21816       176  PMPE      C216          -29.0060250587      -25.4325306252       -1.8722301421  MEMB      176             0.0000000000
     21817       176  PMPE      H16R          -28.9232059246      -24.8981417606       -0.9017203862  MEMB      176             0.0000000000
     21818       176  PMPE      H16S          -29.7614771206      -24.9702533081       -2.5429862485  MEMB      176             0.0000000000
     21819       176  PMPE      H16T          -29.4273701762      -26.4417053571       -1.6763846327  MEMB      176             0.0000000000
     21820       176  PMPE      C33           -24.7423115344      -34.0467889766      -14.9399496000  MEMB      176             0.0000000000
     21821       176  PMPE      H3X           -23.7474226137      -34.5412166003      -14.9322989964  MEMB      176             0.0000000000
     21822       176  PMPE      H3Y           -25.5164906729      -34.7078224633      -14.4949751913  MEMB      176             0.0000000000
     21823       176  PMPE      C34           -24.4861301826      -32.7968020836      -14.0528146179  MEMB      176             0.0000000000
     21824       176  PMPE      H4X           -25.2657354688      -32.0285109970      -14.2432486862  MEMB      176             0.0000000000
     21825       176  PMPE      H4Y           -23.4496850076      -32.4284666930      -14.2091206120  MEMB      176             0.0000000000
     21826       176  PMPE      C35           -24.6351927154      -33.1296565563      -12.5600303172  MEMB      176             0.0000000000
     21827       176  PMPE      H5X           -23.7802191451      -33.8054872582      -12.3441745183  MEMB      176             0.0000000000
     21828       176  PMPE      H5Y           -25.5544846322      -33.7388467617      -12.4254558344  MEMB      176             0.0000000000
     21829       176  PMPE      C36           -24.5541086446      -31.9623623328      -11.5763504563  MEMB      176             0.0000000000
     21830       176  PMPE      H6X           -23.6982078978      -31.3526604518      -11.9369312005  MEMB      176             0.0000000000
     21831       176  PMPE      H6Y           -24.4352117517      -32.4310820765      -10.5761071513  MEMB      176             0.0000000000
     21832       176  PMPE      C37           -25.8530746047      -31.1237491198      -11.6080197579  MEMB      176             0.0000000000
     21833       176  PMPE      H7X           -26.7485144980      -31.5563739956      -11.1126977824  MEMB      176             0.0000000000
     21834       176  PMPE      H7Y           -26.1358170795      -30.8794961213      -12.6543075443  MEMB      176             0.0000000000
     21835       176  PMPE      C38           -25.6341008576      -29.7462375681      -10.9886636393  MEMB      176             0.0000000000
     21836       176  PMPE      H8X           -26.4239400022      -28.9812063767      -11.1474170998  MEMB      176             0.0000000000
     21837       176  PMPE      H8Y           -24.7558326461      -29.2522810633      -11.4566096231  MEMB      176             0.0000000000
     21838       176  PMPE      C39           -25.1649006811      -29.7256272181       -9.5199018347  MEMB      176             0.0000000000
     21839       176  PMPE      H9X           -24.9552601203      -28.6932305627       -9.1670149761  MEMB      176             0.0000000000
     21840       176  PMPE      H9Y           -24.1805860088      -30.2399701555       -9.4899522878  MEMB      176             0.0000000000
     21841       176  PMPE      C310          -26.0341716049      -30.4239683696       -8.4242498606  MEMB      176             0.0000000000
     21842       176  PMPE      H10X          -26.1921134304      -31.5150168496       -8.5620486076  MEMB      176             0.0000000000
     21843       176  PMPE      H10Y          -27.0134587900      -29.9195379572       -8.5687059449  MEMB      176             0.0000000000
     21844       176  PMPE      C311          -25.5476152113      -30.1110456114       -6.9500796818  MEMB      176             0.0000000000
     21845       176  PMPE      H11X          -25.2989368300      -29.0459310340       -6.7551149147  MEMB      176             0.0000000000
     21846       176  PMPE      H11Y          -24.5956009304      -30.6714045356       -6.8318098136  MEMB      176             0.0000000000
     21847       176  PMPE      C312          -26.4539241600      -30.4506536483       -5.7830266397  MEMB      176             0.0000000000
     21848       176  PMPE      H12X          -26.5329268712      -31.5583538104       -5.8158830445  MEMB      176             0.0000000000
     21849       176  PMPE      H12Y          -27.4325738576      -29.9250906128       -5.8017102395  MEMB      176             0.0000000000
     21850       176  PMPE      C313          -25.8473035841      -30.0281759457       -4.4186788585  MEMB      176             0.0000000000
     21851       176  PMPE      H13X          -25.8195626727      -28.9286154010       -4.2620961629  MEMB      176             0.0000000000
     21852       176  PMPE      H13Y          -24.7810488999      -30.3388003571       -4.3881092620  MEMB      176             0.0000000000
     21853       176  PMPE      C314          -26.5099826902      -30.7843219169       -3.2361084352  MEMB      176             0.0000000000
     21854       176  PMPE      H14X          -26.3127480876      -31.8450885191       -3.5010485567  MEMB      176             0.0000000000
     21855       176  PMPE      H14Y          -27.6109551608      -30.6376346298       -3.2103473330  MEMB      176             0.0000000000
     21856       176  PMPE      C315          -25.8111176430      -30.6312727793       -1.9239241052  MEMB      176             0.0000000000
     21857       176  PMPE      H15X          -24.9618855143      -29.9196288217       -2.0057091887  MEMB      176             0.0000000000
     21858       176  PMPE      H15Y          -25.4094401864      -31.6177800439       -1.6080466215  MEMB      176             0.0000000000
     21859       176  PMPE      C316          -26.7281988943      -30.0261967205       -0.8638815884  MEMB      176             0.0000000000
     21860       176  PMPE      H16X          -26.0835856777      -29.9372040594        0.0366037048  MEMB      176             0.0000000000
     21861       176  PMPE      H16Y          -27.5602460862      -30.7063539786       -0.5820942974  MEMB      176             0.0000000000
     21862       176  PMPE      H16Z          -27.1478791918      -29.0072194917       -1.0048603948  MEMB      176             0.0000000000
     21863       177  OYPE      N             -19.5080637731      -31.2225589385      -17.9706902177  MEMB      177             0.0000000000
     21864       177  OYPE      HN1           -19.1976338347      -30.4408788803      -17.3589633495  MEMB      177             0.0000000000
     21865       177  OYPE      HN2           -18.7849915101      -31.4894562714      -18.6689253216  MEMB      177             0.0000000000
     21866       177  OYPE      HN3           -20.4727513781      -31.1259323722      -18.3470425714  MEMB      177             0.0000000000
     21867       177  OYPE      C12           -19.5867978835      -32.3757158575      -17.0084182465  MEMB      177             0.0000000000
     21868       177  OYPE      H12A          -20.3477285649      -32.0428241530      -16.2705234104  MEMB      177             0.0000000000
     21869       177  OYPE      H12B          -18.6346263657      -32.5203277612      -16.4545430256  MEMB      177             0.0000000000
     21870       177  OYPE      C11           -20.0927508822      -33.6257838502      -17.8206948758  MEMB      177             0.0000000000
     21871       177  OYPE      H11A          -21.0781499728      -33.3775306845      -18.2697826817  MEMB      177             0.0000000000
     21872       177  OYPE      H11B          -20.2639064291      -34.5201435144      -17.1841827901  MEMB      177             0.0000000000
     21873       177  OYPE      P             -19.7215413820      -35.0749467990      -19.9430084981  MEMB      177             0.0000000000
     21874       177  OYPE      O13           -18.4364363237      -35.5488270546      -20.6242813759  MEMB      177             0.0000000000
     21875       177  OYPE      O14           -20.8210950413      -34.4353799800      -20.7640161459  MEMB      177             0.0000000000
     21876       177  OYPE      O11           -20.2937092545      -36.1225253418      -18.9718934761  MEMB      177             0.0000000000
     21877       177  OYPE      O12           -19.2376510508      -33.9203389681      -18.8969971437  MEMB      177             0.0000000000
     21878       177  OYPE      C1            -21.0022776649      -37.2419289520      -19.3358235494  MEMB      177             0.0000000000
     21879       177  OYPE      HA            -20.3879230318      -37.9488031433      -19.9335009509  MEMB      177             0.0000000000
     21880       177  OYPE      HB            -21.9696697190      -36.9549847617      -19.8007282678  MEMB      177             0.0000000000
     21881       177  OYPE      C2            -21.2512990549      -38.0396388449      -17.9922039773  MEMB      177             0.0000000000
     21882       177  OYPE      HS            -21.8532743536      -38.9461896046      -18.2160616393  MEMB      177             0.0000000000
     21883       177  OYPE      O21           -21.8704078486      -37.1873043711      -16.9765246424  MEMB      177             0.0000000000
     21884       177  OYPE      C21           -23.1910059683      -36.9146138079      -17.2850632653  MEMB      177             0.0000000000
     21885       177  OYPE      O22           -23.8467817092      -37.5012586936      -18.1183956776  MEMB      177             0.0000000000
     21886       177  OYPE      C22           -23.6412668587      -35.6946726416      -16.3987458270  MEMB      177             0.0000000000
     21887       177  OYPE      H2R           -24.6111362286      -35.2148916931      -16.6507078157  MEMB      177             0.0000000000
     21888       177  OYPE      H2S           -22.8358718428      -34.9330446917      -16.4734640214  MEMB      177             0.0000000000
     21889       177  OYPE      C3            -20.0125547335      -38.6991026394      -17.3205179653  MEMB      177             0.0000000000
     21890       177  OYPE      HX            -19.5134431411      -39.4498405225      -17.9698261832  MEMB      177             0.0000000000
     21891       177  OYPE      HY            -20.5350455807      -39.3197565060      -16.5614965140  MEMB      177             0.0000000000
     21892       177  OYPE      O31           -19.1086157447      -37.6823553275      -16.7930343267  MEMB      177             0.0000000000
     21893       177  OYPE      C31           -18.5184935123      -37.8018853562      -15.5819008916  MEMB      177             0.0000000000
     21894       177  OYPE      O32           -18.7658681664      -38.5850485830      -14.6695147010  MEMB      177             0.0000000000
     21895       177  OYPE      C32           -17.4570176924      -36.6371491770      -15.5306811893  MEMB      177             0.0000000000
     21896       177  OYPE      H2X           -16.5921281480      -36.8991570186      -14.8844313354  MEMB      177             0.0000000000
     21897       177  OYPE      H2Y           -17.0608428010      -36.4266017130      -16.5470652194  MEMB      177             0.0000000000
     21898       177  OYPE      C23           -23.6740222929      -36.2049949039      -14.8386405582  MEMB      177             0.0000000000
     21899       177  OYPE      H3R           -22.6670068336      -36.5574197544      -14.5287408900  MEMB      177             0.0000000000
     21900       177  OYPE      H3S           -24.3041901904      -37.1178386774      -14.7759886738  MEMB      177             0.0000000000
     21901       177  OYPE      C24           -24.2390657614      -35.2591776670      -13.7033270110  MEMB      177             0.0000000000
     21902       177  OYPE      H4R           -25.1968939458      -34.7943720633      -14.0208827815  MEMB      177             0.0000000000
     21903       177  OYPE      H4S           -23.6225202377      -34.3373882335      -13.6362676599  MEMB      177             0.0000000000
     21904       177  OYPE      C25           -24.4175134406      -35.9933103144      -12.3627852004  MEMB      177             0.0000000000
     21905       177  OYPE      H5R           -23.5469907288      -36.5995903799      -12.0327311870  MEMB      177             0.0000000000
     21906       177  OYPE      H5S           -25.2310792142      -36.7479836693      -12.4166354693  MEMB      177             0.0000000000
     21907       177  OYPE      C26           -24.6800129468      -35.1172906695      -11.1849379834  MEMB      177             0.0000000000
     21908       177  OYPE      H6R           -24.9785213118      -35.8347081761      -10.3908806519  MEMB      177             0.0000000000
     21909       177  OYPE      H6S           -25.3772091815      -34.3124791770      -11.5019818400  MEMB      177             0.0000000000
     21910       177  OYPE      C27           -23.5229234559      -34.3227271191      -10.6608048258  MEMB      177             0.0000000000
     21911       177  OYPE      H7R           -23.1101478423      -33.7483941061      -11.5175889418  MEMB      177             0.0000000000
     21912       177  OYPE      H7S           -22.7211945623      -35.0302842039      -10.3592841127  MEMB      177             0.0000000000
     21913       177  OYPE      C28           -23.9194085421      -33.3585951661       -9.5465350940  MEMB      177             0.0000000000
     21914       177  OYPE      H8R           -24.0365873997      -33.8956486941       -8.5810487392  MEMB      177             0.0000000000
     21915       177  OYPE      H8S           -24.8600783520      -32.8304878689       -9.8121736929  MEMB      177             0.0000000000
     21916       177  OYPE      C29           -22.8246647101      -32.3280633122       -9.3892097154  MEMB      177             0.0000000000
     21917       177  OYPE      H9R           -22.0703563649      -32.2987269594      -10.1893081638  MEMB      177             0.0000000000
     21918       177  OYPE      C210          -22.5468078449      -31.6001363995       -8.2723785673  MEMB      177             0.0000000000
     21919       177  OYPE      H10R          -21.7374819627      -30.8622605149       -8.3749972885  MEMB      177             0.0000000000
     21920       177  OYPE      C211          -23.3726412919      -31.7590757425       -6.9266281816  MEMB      177             0.0000000000
     21921       177  OYPE      H11R          -24.3962180289      -32.0695932080       -7.2269455890  MEMB      177             0.0000000000
     21922       177  OYPE      H11S          -23.5466319425      -30.7375237555       -6.5260282103  MEMB      177             0.0000000000
     21923       177  OYPE      C212          -22.7915675657      -32.7415864778       -5.9555445848  MEMB      177             0.0000000000
     21924       177  OYPE      H12R          -21.8347957789      -32.4570953331       -5.4677192740  MEMB      177             0.0000000000
     21925       177  OYPE      H12S          -22.6996273350      -33.7019132227       -6.5065798430  MEMB      177             0.0000000000
     21926       177  OYPE      C213          -23.7799612603      -32.8708461067       -4.7519310255  MEMB      177             0.0000000000
     21927       177  OYPE      H13R          -23.2930650342      -33.6027124558       -4.0725015419  MEMB      177             0.0000000000
     21928       177  OYPE      H13S          -24.7651051649      -33.2243745286       -5.1245301694  MEMB      177             0.0000000000
     21929       177  OYPE      C214          -24.0416145330      -31.5346615567       -3.9260182098  MEMB      177             0.0000000000
     21930       177  OYPE      H14R          -24.9648950444      -31.6497427853       -3.3188683821  MEMB      177             0.0000000000
     21931       177  OYPE      H14S          -24.2819616755      -30.7787390476       -4.7039224814  MEMB      177             0.0000000000
     21932       177  OYPE      C215          -23.0306891244      -31.1361581967       -2.9168143520  MEMB      177             0.0000000000
     21933       177  OYPE      H15R          -23.3568766994      -30.1743930530       -2.4663362121  MEMB      177             0.0000000000
     21934       177  OYPE      H15S          -22.0277988044      -30.9199860943       -3.3431953625  MEMB      177             0.0000000000
     21935       177  OYPE      C216          -22.9515478108      -32.1703525109       -1.7906703371  MEMB      177             0.0000000000
     21936       177  OYPE      H16R          -22.5262409194      -33.1440582368       -2.1152192050  MEMB      177             0.0000000000
     21937       177  OYPE      H16S          -23.9607495391      -32.2632365808       -1.3354729456  MEMB      177             0.0000000000
     21938       177  OYPE      H16T          -22.4101752475      -31.6818375036       -0.9524636214  MEMB      177             0.0000000000
     21939       177  OYPE      C33           -18.1141024760      -35.2902541769      -15.0387122615  MEMB      177             0.0000000000
     21940       177  OYPE      H3X           -19.1931842834      -35.1542878284      -15.2654642820  MEMB      177             0.0000000000
     21941       177  OYPE      H3Y           -17.5407479587      -34.4684357103      -15.5185039756  MEMB      177             0.0000000000
     21942       177  OYPE      C34           -17.9314228736      -35.0424143307      -13.5221928628  MEMB      177             0.0000000000
     21943       177  OYPE      H4X           -18.6709715819      -35.7016547104      -13.0194099274  MEMB      177             0.0000000000
     21944       177  OYPE      H4Y           -16.8735621620      -35.3607943601      -13.4043527658  MEMB      177             0.0000000000
     21945       177  OYPE      C35           -18.1277951938      -33.5949650415      -13.1900071107  MEMB      177             0.0000000000
     21946       177  OYPE      H5X           -19.1582719222      -33.3677090331      -13.5375609962  MEMB      177             0.0000000000
     21947       177  OYPE      H5Y           -17.4422691982      -32.8932323781      -13.7114916937  MEMB      177             0.0000000000
     21948       177  OYPE      C36           -18.0880609703      -33.3594578500      -11.6661025379  MEMB      177             0.0000000000
     21949       177  OYPE      H6X           -17.0321346519      -33.6326232777      -11.4546294629  MEMB      177             0.0000000000
     21950       177  OYPE      H6Y           -18.1328823826      -32.2662218714      -11.4733665715  MEMB      177             0.0000000000
     21951       177  OYPE      C37           -19.1025363538      -34.0745863167      -10.8860953867  MEMB      177             0.0000000000
     21952       177  OYPE      H7X           -20.0572440249      -33.9961523404      -11.4488588191  MEMB      177             0.0000000000
     21953       177  OYPE      H7Y           -18.9116561239      -35.1594638373      -10.7414356907  MEMB      177             0.0000000000
     21954       177  OYPE      C38           -19.4282778127      -33.3914645206       -9.5275888603  MEMB      177             0.0000000000
     21955       177  OYPE      H8X           -19.8673319526      -32.3918970151       -9.7335431182  MEMB      177             0.0000000000
     21956       177  OYPE      H8Y           -20.2516003664      -34.0303577593       -9.1425221469  MEMB      177             0.0000000000
     21957       177  OYPE      C39           -18.2896465513      -33.2509776844       -8.5239778744  MEMB      177             0.0000000000
     21958       177  OYPE      H9X           -17.5256251924      -32.6721201089       -9.0636022964  MEMB      177             0.0000000000
     21959       177  OYPE      C310          -18.2069530614      -33.6897941095       -7.2792609029  MEMB      177             0.0000000000
     21960       177  OYPE      H10X          -17.2410044120      -33.5483300307       -6.7723776089  MEMB      177             0.0000000000
     21961       177  OYPE      C311          -19.2388886322      -34.4559706151       -6.4408606128  MEMB      177             0.0000000000
     21962       177  OYPE      H11X          -20.2336710250      -33.9613635618       -6.4504758822  MEMB      177             0.0000000000
     21963       177  OYPE      H11Y          -19.3239693911      -35.4473175307       -6.9351418311  MEMB      177             0.0000000000
     21964       177  OYPE      C312          -18.8804463104      -34.6686836713       -4.9634011327  MEMB      177             0.0000000000
     21965       177  OYPE      H12X          -18.7433423531      -33.6489743739       -4.5442160271  MEMB      177             0.0000000000
     21966       177  OYPE      H12Y          -18.0947588072      -35.4408883539       -4.8194703563  MEMB      177             0.0000000000
     21967       177  OYPE      C313          -20.1531805922      -35.0645063764       -4.1103832176  MEMB      177             0.0000000000
     21968       177  OYPE      H13X          -19.9816429202      -34.8576688765       -3.0323690661  MEMB      177             0.0000000000
     21969       177  OYPE      H13Y          -21.1150696579      -34.6569997742       -4.4885748655  MEMB      177             0.0000000000
     21970       177  OYPE      C314          -20.3396025325      -36.5726058575       -4.0327929540  MEMB      177             0.0000000000
     21971       177  OYPE      H14X          -19.4012855001      -37.0560772703       -3.6861847713  MEMB      177             0.0000000000
     21972       177  OYPE      H14Y          -20.5146712290      -36.9530097002       -5.0618532008  MEMB      177             0.0000000000
     21973       177  OYPE      C315          -21.4455661927      -37.1685954886       -3.1194742014  MEMB      177             0.0000000000
     21974       177  OYPE      H15X          -21.5052643984      -38.2693769978       -3.2574508469  MEMB      177             0.0000000000
     21975       177  OYPE      H15Y          -22.3917890269      -36.8010132613       -3.5709905707  MEMB      177             0.0000000000
     21976       177  OYPE      C316          -21.6121302505      -36.7798296578       -1.6081024652  MEMB      177             0.0000000000
     21977       177  OYPE      H16X          -22.3440301997      -37.4519637826       -1.1112339663  MEMB      177             0.0000000000
     21978       177  OYPE      H16Y          -21.9281839894      -35.7148959350       -1.6267296621  MEMB      177             0.0000000000
     21979       177  OYPE      C317          -20.2624821363      -36.8946220943       -0.8298604467  MEMB      177             0.0000000000
     21980       177  OYPE      H17X          -19.4943683789      -36.2446344960       -1.3008587084  MEMB      177             0.0000000000
     21981       177  OYPE      H17Y          -19.7780328184      -37.8897932305       -0.9261112705  MEMB      177             0.0000000000
     21982       177  OYPE      C318          -20.2252032268      -36.3241286974        0.5988246395  MEMB      177             0.0000000000
     21983       177  OYPE      H18X          -20.8885717827      -36.8566571105        1.3134418934  MEMB      177             0.0000000000
     21984       177  OYPE      H18Y          -19.2744985002      -36.2452779026        1.1682666904  MEMB      177             0.0000000000
     21985       177  OYPE      H18Z          -20.6428368909      -35.2985351247        0.5090424696  MEMB      177             0.0000000000
     21986       178  PMPG      C13            30.7876619157      -22.7808812334      -19.8649547185  MEMB      178             0.0000000000
     21987       178  PMPG      H13A           31.5839827948      -23.4538322089      -20.2487919310  MEMB      178             0.0000000000
     21988       178  PMPG      H13B           30.3298852598      -22.3695690147      -20.7899323980  MEMB      178             0.0000000000
     21989       178  PMPG      OC3            31.2895240763      -21.7373466548      -19.0905434278  MEMB      178             0.0000000000
     21990       178  PMPG      HO3            31.0572677153      -21.8789433971      -18.1698875354  MEMB      178             0.0000000000
     21991       178  PMPG      C12            29.6307598294      -23.5868964247      -19.1481999286  MEMB      178             0.0000000000
     21992       178  PMPG      H12A           28.6939927164      -22.9933520668      -19.2620046353  MEMB      178             0.0000000000
     21993       178  PMPG      OC2            29.9080840857      -23.7092913328      -17.7524379026  MEMB      178             0.0000000000
     21994       178  PMPG      HO2            29.2124531798      -24.3295854425      -17.4425190419  MEMB      178             0.0000000000
     21995       178  PMPG      C11            29.3600493562      -24.9554998206      -19.7250260084  MEMB      178             0.0000000000
     21996       178  PMPG      H11A           29.0608355627      -24.8001600098      -20.7836390015  MEMB      178             0.0000000000
     21997       178  PMPG      H11B           28.5843389471      -25.4881814695      -19.1343952320  MEMB      178             0.0000000000
     21998       178  PMPG      P              30.8853819098      -27.0005264493      -18.9072546371  MEMB      178             0.0000000000
     21999       178  PMPG      O13            32.1893749902      -27.6156637476      -19.3002963592  MEMB      178             0.0000000000
     22000       178  PMPG      O14            29.6676524364      -27.8386955668      -19.1246339626  MEMB      178             0.0000000000
     22001       178  PMPG      O11            30.8958880880      -26.5053275793      -17.3541941749  MEMB      178             0.0000000000
     22002       178  PMPG      O12            30.6854393127      -25.5634041884      -19.7324588800  MEMB      178             0.0000000000
     22003       178  PMPG      C1             30.2524359539      -27.3558777193      -16.3840380966  MEMB      178             0.0000000000
     22004       178  PMPG      HA             30.3997147511      -28.4382282590      -16.5868870335  MEMB      178             0.0000000000
     22005       178  PMPG      HB             29.1809263861      -27.0658106766      -16.3387705891  MEMB      178             0.0000000000
     22006       178  PMPG      C2             30.9045464745      -27.0899462005      -15.0895652345  MEMB      178             0.0000000000
     22007       178  PMPG      HS             30.4815284570      -27.7210141085      -14.2789296861  MEMB      178             0.0000000000
     22008       178  PMPG      O21            30.7666881344      -25.6826580754      -14.7405013933  MEMB      178             0.0000000000
     22009       178  PMPG      C21            29.6284160886      -25.3181194928      -14.2034488623  MEMB      178             0.0000000000
     22010       178  PMPG      O22            28.6858431702      -25.9586041062      -13.8606184129  MEMB      178             0.0000000000
     22011       178  PMPG      C22            29.5843988383      -23.7944461943      -14.1612705180  MEMB      178             0.0000000000
     22012       178  PMPG      H2R            28.6224642563      -23.5286860483      -14.6495061830  MEMB      178             0.0000000000
     22013       178  PMPG      H2S            30.3544590627      -23.3592653371      -14.8335395076  MEMB      178             0.0000000000
     22014       178  PMPG      C3             32.4630236398      -27.3821716773      -15.1229682599  MEMB      178             0.0000000000
     22015       178  PMPG      HX             32.9306761378      -26.6004534495      -15.7590018895  MEMB      178             0.0000000000
     22016       178  PMPG      HY             32.5955664347      -28.3678849566      -15.6180666244  MEMB      178             0.0000000000
     22017       178  PMPG      O31            32.9630785103      -27.4215767204      -13.8081431770  MEMB      178             0.0000000000
     22018       178  PMPG      C31            33.3870460683      -26.2523250850      -13.3011089883  MEMB      178             0.0000000000
     22019       178  PMPG      O32            33.4294614593      -25.1493649472      -13.7375651624  MEMB      178             0.0000000000
     22020       178  PMPG      C32            33.8509184721      -26.5579674158      -11.7920708038  MEMB      178             0.0000000000
     22021       178  PMPG      H2X            34.7925256434      -27.1463300962      -11.8311368973  MEMB      178             0.0000000000
     22022       178  PMPG      H2Y            33.0304421225      -27.1361328745      -11.3157679689  MEMB      178             0.0000000000
     22023       178  PMPG      C23            29.6560122062      -23.1302707596      -12.7881984861  MEMB      178             0.0000000000
     22024       178  PMPG      H3R            28.9308681416      -23.5441002092      -12.0552372398  MEMB      178             0.0000000000
     22025       178  PMPG      H3S            29.3616367844      -22.0754870492      -12.9755366014  MEMB      178             0.0000000000
     22026       178  PMPG      C24            31.0988932581      -23.1279200674      -12.1322776242  MEMB      178             0.0000000000
     22027       178  PMPG      H4R            31.7616490639      -22.6471815444      -12.8832541617  MEMB      178             0.0000000000
     22028       178  PMPG      H4S            31.3141563452      -24.2074836413      -11.9821931136  MEMB      178             0.0000000000
     22029       178  PMPG      C25            31.1336248538      -22.5612711609      -10.6833253012  MEMB      178             0.0000000000
     22030       178  PMPG      H5R            30.4075407729      -21.7203661285      -10.6845801034  MEMB      178             0.0000000000
     22031       178  PMPG      H5S            32.1676562125      -22.2605652994      -10.4100557711  MEMB      178             0.0000000000
     22032       178  PMPG      C26            30.7252918864      -23.6225490816       -9.6545525873  MEMB      178             0.0000000000
     22033       178  PMPG      H6R            31.2471818025      -24.5487779683       -9.9771240312  MEMB      178             0.0000000000
     22034       178  PMPG      H6S            29.6537497918      -23.9110708824       -9.7081599226  MEMB      178             0.0000000000
     22035       178  PMPG      C27            31.2712632133      -23.5679876292       -8.2265951454  MEMB      178             0.0000000000
     22036       178  PMPG      H7R            32.3633734173      -23.3851514716       -8.1361112918  MEMB      178             0.0000000000
     22037       178  PMPG      H7S            30.9923016150      -24.4736570705       -7.6467127907  MEMB      178             0.0000000000
     22038       178  PMPG      C28            30.6389930741      -22.3706857683       -7.3902883217  MEMB      178             0.0000000000
     22039       178  PMPG      H8R            30.7536478078      -21.4008342541       -7.9199702313  MEMB      178             0.0000000000
     22040       178  PMPG      H8S            31.1902099822      -22.2781530512       -6.4301219484  MEMB      178             0.0000000000
     22041       178  PMPG      C29            29.2016395234      -22.5598211420       -7.1351422863  MEMB      178             0.0000000000
     22042       178  PMPG      H9R            28.5676380871      -22.6349189793       -8.0443849892  MEMB      178             0.0000000000
     22043       178  PMPG      C217           28.6582592717      -23.0891612770       -5.8570475024  MEMB      178             0.0000000000
     22044       178  PMPG      H17R           27.8000629669      -23.7198164381       -6.0536736903  MEMB      178             0.0000000000
     22045       178  PMPG      H17S           29.4340321558      -23.4027927570       -5.1695151302  MEMB      178             0.0000000000
     22046       178  PMPG      C210           28.5816082129      -21.6252288183       -6.1662688941  MEMB      178             0.0000000000
     22047       178  PMPG      H10R           27.6562571123      -21.1565247548       -6.5642176289  MEMB      178             0.0000000000
     22048       178  PMPG      C211           29.6204318266      -20.7343441227       -5.4238118370  MEMB      178             0.0000000000
     22049       178  PMPG      H11R           30.3831421037      -21.2969278058       -4.8440757537  MEMB      178             0.0000000000
     22050       178  PMPG      H11S           30.2831511790      -20.1381227677       -6.0868684187  MEMB      178             0.0000000000
     22051       178  PMPG      C212           28.8603239230      -19.9075024315       -4.3424487203  MEMB      178             0.0000000000
     22052       178  PMPG      H12R           27.8422722868      -19.6299664073       -4.6901054720  MEMB      178             0.0000000000
     22053       178  PMPG      H12S           29.5535666519      -19.0608621222       -4.1502611403  MEMB      178             0.0000000000
     22054       178  PMPG      C213           28.6803996041      -20.6275941651       -3.0255804585  MEMB      178             0.0000000000
     22055       178  PMPG      H13R           28.0594333600      -21.5441664086       -3.1184098484  MEMB      178             0.0000000000
     22056       178  PMPG      H13S           28.2367390180      -19.8354102422       -2.3853219833  MEMB      178             0.0000000000
     22057       178  PMPG      C214           30.0024011991      -21.1478791032       -2.4072832137  MEMB      178             0.0000000000
     22058       178  PMPG      H14R           30.7237338305      -20.3752623094       -2.7494298098  MEMB      178             0.0000000000
     22059       178  PMPG      H14S           30.3748598397      -22.0793176205       -2.8847959646  MEMB      178             0.0000000000
     22060       178  PMPG      C215           30.0851456415      -21.1828051090       -0.9123103667  MEMB      178             0.0000000000
     22061       178  PMPG      H15R           30.9752817913      -21.8000095028       -0.6652536425  MEMB      178             0.0000000000
     22062       178  PMPG      H15S           29.1786304619      -21.7020491914       -0.5342404289  MEMB      178             0.0000000000
     22063       178  PMPG      C216           30.2850091186      -19.8162911179       -0.2411863500  MEMB      178             0.0000000000
     22064       178  PMPG      H16R           29.4386042603      -19.1117891099       -0.3881441811  MEMB      178             0.0000000000
     22065       178  PMPG      H16S           31.1598768619      -19.3092668871       -0.7014611264  MEMB      178             0.0000000000
     22066       178  PMPG      H16T           30.4498848372      -19.9368435149        0.8508782322  MEMB      178             0.0000000000
     22067       178  PMPG      C33            34.2534472771      -25.2627528522      -11.0305062033  MEMB      178             0.0000000000
     22068       178  PMPG      H3X            33.3548992575      -24.6298322945      -10.8681974430  MEMB      178             0.0000000000
     22069       178  PMPG      H3Y            35.0441780518      -24.7828167155      -11.6459144133  MEMB      178             0.0000000000
     22070       178  PMPG      C34            34.8612445896      -25.5140549918       -9.6151702919  MEMB      178             0.0000000000
     22071       178  PMPG      H4X            35.1258669355      -24.4925438774       -9.2675924952  MEMB      178             0.0000000000
     22072       178  PMPG      H4Y            35.7392676989      -26.1895134652       -9.6997450795  MEMB      178             0.0000000000
     22073       178  PMPG      C35            33.8713719974      -26.0386114756       -8.5985975919  MEMB      178             0.0000000000
     22074       178  PMPG      H5X            33.2948979675      -26.8850596422       -9.0293222637  MEMB      178             0.0000000000
     22075       178  PMPG      H5Y            33.1729463868      -25.2033445192       -8.3775734029  MEMB      178             0.0000000000
     22076       178  PMPG      C36            34.4957351727      -26.4521651980       -7.2741893058  MEMB      178             0.0000000000
     22077       178  PMPG      H6X            35.2074642278      -25.7068293830       -6.8591741174  MEMB      178             0.0000000000
     22078       178  PMPG      H6Y            34.9691561118      -27.4433530475       -7.4407440851  MEMB      178             0.0000000000
     22079       178  PMPG      C37            33.3383461839      -26.6516428350       -6.2830321688  MEMB      178             0.0000000000
     22080       178  PMPG      H7X            33.6974017639      -27.4656608370       -5.6176189917  MEMB      178             0.0000000000
     22081       178  PMPG      H7Y            32.3990119617      -27.0875622478       -6.6854587654  MEMB      178             0.0000000000
     22082       178  PMPG      C38            32.9725339741      -25.4061230101       -5.5364025841  MEMB      178             0.0000000000
     22083       178  PMPG      H8X            32.8047501251      -24.6078432751       -6.2906696986  MEMB      178             0.0000000000
     22084       178  PMPG      H8Y            33.8198924070      -25.0133015272       -4.9347411872  MEMB      178             0.0000000000
     22085       178  PMPG      C39            31.7940048876      -25.3995928087       -4.4659657128  MEMB      178             0.0000000000
     22086       178  PMPG      H9X            30.9038841851      -25.8677861219       -4.9379844600  MEMB      178             0.0000000000
     22087       178  PMPG      H9Y            31.7041706430      -24.3325085593       -4.1700233427  MEMB      178             0.0000000000
     22088       178  PMPG      C310           32.0560651277      -26.1872768273       -3.2172461406  MEMB      178             0.0000000000
     22089       178  PMPG      H10X           32.9713676878      -25.7892129040       -2.7293041658  MEMB      178             0.0000000000
     22090       178  PMPG      H10Y           32.0960208349      -27.2797544789       -3.4152806366  MEMB      178             0.0000000000
     22091       178  PMPG      C311           30.8383053558      -26.1988459672       -2.2468119132  MEMB      178             0.0000000000
     22092       178  PMPG      H11X           31.1751844954      -26.6520396326       -1.2900221575  MEMB      178             0.0000000000
     22093       178  PMPG      H11Y           30.1148310353      -26.8746756964       -2.7509556060  MEMB      178             0.0000000000
     22094       178  PMPG      C312           30.1830993181      -24.8278515113       -1.9510745617  MEMB      178             0.0000000000
     22095       178  PMPG      H12X           29.9347703256      -24.2984278268       -2.8957248684  MEMB      178             0.0000000000
     22096       178  PMPG      H12Y           30.9109955016      -24.1813339557       -1.4158141430  MEMB      178             0.0000000000
     22097       178  PMPG      C313           28.8742070910      -25.0098620355       -1.2030901418  MEMB      178             0.0000000000
     22098       178  PMPG      H13X           28.2189419576      -25.7768941990       -1.6685045853  MEMB      178             0.0000000000
     22099       178  PMPG      H13Y           28.3466172619      -24.0403086337       -1.3293291738  MEMB      178             0.0000000000
     22100       178  PMPG      C314           28.9856313674      -25.3447215153        0.3471917067  MEMB      178             0.0000000000
     22101       178  PMPG      H14X           29.6082982819      -24.5600628997        0.8277313795  MEMB      178             0.0000000000
     22102       178  PMPG      H14Y           29.5381036558      -26.3085192309        0.3609562346  MEMB      178             0.0000000000
     22103       178  PMPG      C315           27.5612676369      -25.2770662080        1.0072214184  MEMB      178             0.0000000000
     22104       178  PMPG      H15X           27.2972475413      -24.1983589944        1.0389239999  MEMB      178             0.0000000000
     22105       178  PMPG      H15Y           27.5805283508      -25.6499182289        2.0536107665  MEMB      178             0.0000000000
     22106       178  PMPG      C316           26.4101736677      -26.0910256682        0.3231067969  MEMB      178             0.0000000000
     22107       178  PMPG      H16X           26.0654423273      -25.7779762540       -0.6855958768  MEMB      178             0.0000000000
     22108       178  PMPG      H16Y           25.4604310256      -25.8448848819        0.8443787971  MEMB      178             0.0000000000
     22109       178  PMPG      H16Z           26.6542252856      -27.1745768039        0.3491194912  MEMB      178             0.0000000000
     22110       179  PMPE      N              39.7443014080       12.7407200677      -21.1351121176  MEMB      179             0.0000000000
     22111       179  PMPE      HN1            39.3532366698       12.9759608375      -22.0696333851  MEMB      179             0.0000000000
     22112       179  PMPE      HN2            39.6961299652       13.5706813537      -20.5102570357  MEMB      179             0.0000000000
     22113       179  PMPE      HN3            40.7646729143       12.5405179434      -21.1161124939  MEMB      179             0.0000000000
     22114       179  PMPE      C12            38.9909979415       11.5711513888      -20.7390452465  MEMB      179             0.0000000000
     22115       179  PMPE      H12A           39.4474531934       10.9804582427      -19.9162140353  MEMB      179             0.0000000000
     22116       179  PMPE      H12B           39.1447926614       10.9211019637      -21.6267974525  MEMB      179             0.0000000000
     22117       179  PMPE      C11            37.4615331209       11.8035266004      -20.4929435974  MEMB      179             0.0000000000
     22118       179  PMPE      H11A           36.9501234262       10.8172328704      -20.4905223043  MEMB      179             0.0000000000
     22119       179  PMPE      H11B           36.9583151351       12.3680009292      -21.3068608536  MEMB      179             0.0000000000
     22120       179  PMPE      P              37.0761743899       11.8375717564      -17.8869964331  MEMB      179             0.0000000000
     22121       179  PMPE      O13            38.2290316543       10.9925431920      -17.5800065825  MEMB      179             0.0000000000
     22122       179  PMPE      O14            35.7327038473       11.1890275469      -17.9964752030  MEMB      179             0.0000000000
     22123       179  PMPE      O11            37.1120574109       13.0677431272      -16.8662960852  MEMB      179             0.0000000000
     22124       179  PMPE      O12            37.3582474275       12.5950787162      -19.3031247331  MEMB      179             0.0000000000
     22125       179  PMPE      C1             35.9435601805       13.7731611499      -16.5409206390  MEMB      179             0.0000000000
     22126       179  PMPE      HA             35.0329991869       13.2576685217      -16.9143735461  MEMB      179             0.0000000000
     22127       179  PMPE      HB             36.0459349782       14.7999360141      -16.9527140150  MEMB      179             0.0000000000
     22128       179  PMPE      C2             35.7853967318       13.8141110430      -15.0059374704  MEMB      179             0.0000000000
     22129       179  PMPE      HS             34.7625832911       14.2466946422      -14.9736118736  MEMB      179             0.0000000000
     22130       179  PMPE      O21            36.8374707573       14.6616508617      -14.4261231223  MEMB      179             0.0000000000
     22131       179  PMPE      C21            36.5933481294       15.9716037713      -14.4630560105  MEMB      179             0.0000000000
     22132       179  PMPE      O22            35.6120673974       16.5194596640      -14.9138542699  MEMB      179             0.0000000000
     22133       179  PMPE      C22            37.6828914839       16.7161388215      -13.6432993990  MEMB      179             0.0000000000
     22134       179  PMPE      H2R            37.8143417711       17.6227174539      -14.2719149537  MEMB      179             0.0000000000
     22135       179  PMPE      H2S            38.6503832476       16.1700368013      -13.6505922088  MEMB      179             0.0000000000
     22136       179  PMPE      C3             35.9163594946       12.4540262530      -14.4757038769  MEMB      179             0.0000000000
     22137       179  PMPE      HX             36.8854384652       12.0320483811      -14.8179635934  MEMB      179             0.0000000000
     22138       179  PMPE      HY             35.2219494682       11.7657439705      -15.0033241115  MEMB      179             0.0000000000
     22139       179  PMPE      O31            35.8748027921       12.3424937080      -13.0544738626  MEMB      179             0.0000000000
     22140       179  PMPE      C31            36.1552903756       11.1175174010      -12.6671492861  MEMB      179             0.0000000000
     22141       179  PMPE      O32            36.5321443828       10.1667494037      -13.3697447298  MEMB      179             0.0000000000
     22142       179  PMPE      C32            36.0178453954       11.2129587150      -11.1325186602  MEMB      179             0.0000000000
     22143       179  PMPE      H2X            34.9316195486       11.4263511392      -11.0381870201  MEMB      179             0.0000000000
     22144       179  PMPE      H2Y            36.6714650096       12.0410588321      -10.7841616066  MEMB      179             0.0000000000
     22145       179  PMPE      C23            37.0961356832       17.2278931126      -12.3109588490  MEMB      179             0.0000000000
     22146       179  PMPE      H3R            36.4334918705       18.1149116810      -12.4027333240  MEMB      179             0.0000000000
     22147       179  PMPE      H3S            37.9196231968       17.4867670089      -11.6115491632  MEMB      179             0.0000000000
     22148       179  PMPE      C24            36.2783505628       16.1528619136      -11.6402764640  MEMB      179             0.0000000000
     22149       179  PMPE      H4R            36.7317853752       15.1399727246      -11.5876128992  MEMB      179             0.0000000000
     22150       179  PMPE      H4S            35.3002557065       16.0147484167      -12.1487805228  MEMB      179             0.0000000000
     22151       179  PMPE      C25            35.9685403663       16.5796274526      -10.2078372765  MEMB      179             0.0000000000
     22152       179  PMPE      H5R            35.2261223373       17.3713903524      -10.4450038018  MEMB      179             0.0000000000
     22153       179  PMPE      H5S            36.8801998324       17.0846411478       -9.8229233221  MEMB      179             0.0000000000
     22154       179  PMPE      C26            35.3073772839       15.4811742580       -9.3386771409  MEMB      179             0.0000000000
     22155       179  PMPE      H6R            34.3857303254       15.0969895037       -9.8258020391  MEMB      179             0.0000000000
     22156       179  PMPE      H6S            34.9058469725       15.9647496259       -8.4225711198  MEMB      179             0.0000000000
     22157       179  PMPE      C27            36.2470666930       14.3200526899       -9.0148708776  MEMB      179             0.0000000000
     22158       179  PMPE      H7R            37.0140846390       14.1365374974       -9.7973836490  MEMB      179             0.0000000000
     22159       179  PMPE      H7S            35.6488500292       13.3943342248       -8.8752170780  MEMB      179             0.0000000000
     22160       179  PMPE      C28            36.9947798742       14.5311885132       -7.6238670867  MEMB      179             0.0000000000
     22161       179  PMPE      H8R            37.4017434644       13.5352082643       -7.3468747462  MEMB      179             0.0000000000
     22162       179  PMPE      H8S            36.2643428597       14.7683226739       -6.8210286748  MEMB      179             0.0000000000
     22163       179  PMPE      C29            38.0530387063       15.6190454410       -7.6170842412  MEMB      179             0.0000000000
     22164       179  PMPE      H9R            37.6917523535       16.6544188249       -7.7953957371  MEMB      179             0.0000000000
     22165       179  PMPE      C217           39.2219654583       15.0958921918       -8.4580376297  MEMB      179             0.0000000000
     22166       179  PMPE      H17R           39.7447434681       15.8369230372       -9.0500386690  MEMB      179             0.0000000000
     22167       179  PMPE      H17S           39.2733362815       14.0253412030       -8.6135067831  MEMB      179             0.0000000000
     22168       179  PMPE      C210           39.3942025724       15.4448580127       -6.9523087320  MEMB      179             0.0000000000
     22169       179  PMPE      H10R           40.0855502811       16.3135690400       -6.9110675937  MEMB      179             0.0000000000
     22170       179  PMPE      C211           39.5266529095       14.3020575552       -5.8974279079  MEMB      179             0.0000000000
     22171       179  PMPE      H11R           40.5899573230       14.1114452004       -5.6378674851  MEMB      179             0.0000000000
     22172       179  PMPE      H11S           39.2002219717       13.2678268867       -6.1385299944  MEMB      179             0.0000000000
     22173       179  PMPE      C212           38.7810221448       14.7622994858       -4.6206708339  MEMB      179             0.0000000000
     22174       179  PMPE      H12R           37.7288511232       14.9950095981       -4.8910467200  MEMB      179             0.0000000000
     22175       179  PMPE      H12S           39.2179461833       15.7348792368       -4.3084092585  MEMB      179             0.0000000000
     22176       179  PMPE      C213           38.9184746672       13.8746891203       -3.3310177789  MEMB      179             0.0000000000
     22177       179  PMPE      H13R           39.9293260027       13.5043454918       -3.0565249790  MEMB      179             0.0000000000
     22178       179  PMPE      H13S           38.4093005733       12.9376579336       -3.6425226178  MEMB      179             0.0000000000
     22179       179  PMPE      C214           38.0744197211       14.4468038464       -2.1708284289  MEMB      179             0.0000000000
     22180       179  PMPE      H14R           38.4122880527       15.4130842803       -1.7390097971  MEMB      179             0.0000000000
     22181       179  PMPE      H14S           38.1545992291       13.7167618643       -1.3372035167  MEMB      179             0.0000000000
     22182       179  PMPE      C215           36.4899355069       14.6710805123       -2.2869456259  MEMB      179             0.0000000000
     22183       179  PMPE      H15R           36.0804276654       13.7068164595       -2.6568370596  MEMB      179             0.0000000000
     22184       179  PMPE      H15S           36.2098507176       15.4625441117       -3.0145853751  MEMB      179             0.0000000000
     22185       179  PMPE      C216           35.7952537619       15.0384074873       -0.9928035460  MEMB      179             0.0000000000
     22186       179  PMPE      H16R           36.1904884362       15.9912433644       -0.5802325702  MEMB      179             0.0000000000
     22187       179  PMPE      H16S           34.6853925736       15.0642554810       -1.0359410576  MEMB      179             0.0000000000
     22188       179  PMPE      H16T           35.8771625693       14.2330848134       -0.2318391844  MEMB      179             0.0000000000
     22189       179  PMPE      C33            36.5489055104        9.9237116450      -10.4769614455  MEMB      179             0.0000000000
     22190       179  PMPE      H3X            37.5668014917        9.8152873858      -10.9087633313  MEMB      179             0.0000000000
     22191       179  PMPE      H3Y            36.0503238892        8.9700925415      -10.7532733094  MEMB      179             0.0000000000
     22192       179  PMPE      C34            36.7162979242        9.8505888360       -8.9734235939  MEMB      179             0.0000000000
     22193       179  PMPE      H4X            37.3198629315       10.7604812779       -8.7681766129  MEMB      179             0.0000000000
     22194       179  PMPE      H4Y            37.2889296527        8.9910227574       -8.5640824755  MEMB      179             0.0000000000
     22195       179  PMPE      C35            35.4195833991        9.8982296450       -8.1458036895  MEMB      179             0.0000000000
     22196       179  PMPE      H5X            34.6535150829        9.2601865593       -8.6360697954  MEMB      179             0.0000000000
     22197       179  PMPE      H5Y            35.0266345693       10.9270354942       -7.9992737894  MEMB      179             0.0000000000
     22198       179  PMPE      C36            35.6251352854        9.3420177317       -6.6955609876  MEMB      179             0.0000000000
     22199       179  PMPE      H6X            35.9665258342        8.2848269474       -6.7065423645  MEMB      179             0.0000000000
     22200       179  PMPE      H6Y            34.6081278291        9.3214234366       -6.2488032605  MEMB      179             0.0000000000
     22201       179  PMPE      C37            36.5321195964       10.1718167179       -5.8060838425  MEMB      179             0.0000000000
     22202       179  PMPE      H7X            36.3050174969       11.2562452165       -5.8883053771  MEMB      179             0.0000000000
     22203       179  PMPE      H7Y            37.5320489417        9.8862492136       -6.1971257931  MEMB      179             0.0000000000
     22204       179  PMPE      C38            36.4239129591        9.6643799383       -4.3896559713  MEMB      179             0.0000000000
     22205       179  PMPE      H8X            36.7364470680        8.5982512307       -4.3860250556  MEMB      179             0.0000000000
     22206       179  PMPE      H8Y            35.3472898945        9.5178782483       -4.1578349838  MEMB      179             0.0000000000
     22207       179  PMPE      C39            37.1649877049       10.3850742827       -3.2276580130  MEMB      179             0.0000000000
     22208       179  PMPE      H9X            36.8906481201       11.4611424957       -3.1939469085  MEMB      179             0.0000000000
     22209       179  PMPE      H9Y            38.2636524205       10.3985274548       -3.3922058291  MEMB      179             0.0000000000
     22210       179  PMPE      C310           37.0604635077        9.7756601857       -1.8473681304  MEMB      179             0.0000000000
     22211       179  PMPE      H10X           37.3026963758        8.7010760508       -1.9919820468  MEMB      179             0.0000000000
     22212       179  PMPE      H10Y           35.9770229582        9.7835126209       -1.6015719650  MEMB      179             0.0000000000
     22213       179  PMPE      C311           37.8196609642       10.5138414070       -0.7315362750  MEMB      179             0.0000000000
     22214       179  PMPE      H11X           37.6204457672       10.1128537799        0.2852430127  MEMB      179             0.0000000000
     22215       179  PMPE      H11Y           37.5094087496       11.5794269789       -0.6806258777  MEMB      179             0.0000000000
     22216       179  PMPE      C312           39.3476972379       10.4278294324       -0.9679625639  MEMB      179             0.0000000000
     22217       179  PMPE      H12X           39.7218735198       10.9069630649       -1.8978790387  MEMB      179             0.0000000000
     22218       179  PMPE      H12Y           39.6053492746        9.3550674637       -1.0987985857  MEMB      179             0.0000000000
     22219       179  PMPE      C313           40.3179453490       10.7973994568        0.2449723655  MEMB      179             0.0000000000
     22220       179  PMPE      H13X           41.2696869760       10.2595873079        0.0468148646  MEMB      179             0.0000000000
     22221       179  PMPE      H13Y           39.9222717070       10.4621243150        1.2274974627  MEMB      179             0.0000000000
     22222       179  PMPE      C314           40.4381107309       12.3223136160        0.5747004423  MEMB      179             0.0000000000
     22223       179  PMPE      H14X           39.5146907679       12.5530440613        1.1477453823  MEMB      179             0.0000000000
     22224       179  PMPE      H14Y           40.4062326881       12.9432702513       -0.3460140906  MEMB      179             0.0000000000
     22225       179  PMPE      C315           41.5323327861       12.6817390590        1.5681934555  MEMB      179             0.0000000000
     22226       179  PMPE      H15X           42.4524536287       12.1952251013        1.1796017099  MEMB      179             0.0000000000
     22227       179  PMPE      H15Y           41.3712915014       12.3147399037        2.6043867360  MEMB      179             0.0000000000
     22228       179  PMPE      C316           41.7515568744       14.1928685540        1.5530321719  MEMB      179             0.0000000000
     22229       179  PMPE      H16X           42.0222439849       14.4658382514        0.5106616917  MEMB      179             0.0000000000
     22230       179  PMPE      H16Y           42.6233611733       14.3668094961        2.2193830375  MEMB      179             0.0000000000
     22231       179  PMPE      H16Z           40.8498236800       14.8137981145        1.7418308994  MEMB      179             0.0000000000
     22232       180  PMPE      N              20.6805979541      -34.3885778006      -21.0859166186  MEMB      180             0.0000000000
     22233       180  PMPE      HN1            21.3437950063      -34.0285108669      -21.8015431935  MEMB      180             0.0000000000
     22234       180  PMPE      HN2            21.1008232696      -35.3114460162      -20.8549949983  MEMB      180             0.0000000000
     22235       180  PMPE      HN3            19.7542442908      -34.6112630937      -21.5029059035  MEMB      180             0.0000000000
     22236       180  PMPE      C12            20.3463290218      -33.5135086214      -19.8909519993  MEMB      180             0.0000000000
     22237       180  PMPE      H12A           19.8248944335      -32.6531627410      -20.3623667819  MEMB      180             0.0000000000
     22238       180  PMPE      H12B           21.3101217929      -33.1271604751      -19.4957818018  MEMB      180             0.0000000000
     22239       180  PMPE      C11            19.5014364731      -34.2835544787      -18.7771109414  MEMB      180             0.0000000000
     22240       180  PMPE      H11A           19.1784047961      -33.5167456011      -18.0409209287  MEMB      180             0.0000000000
     22241       180  PMPE      H11B           20.1517515979      -35.0138309111      -18.2497519655  MEMB      180             0.0000000000
     22242       180  PMPE      P              17.2981385888      -35.7432561901      -18.4621320869  MEMB      180             0.0000000000
     22243       180  PMPE      O13            17.8968155630      -36.8561776961      -17.7720566031  MEMB      180             0.0000000000
     22244       180  PMPE      O14            16.1300576835      -35.9699940468      -19.3243832574  MEMB      180             0.0000000000
     22245       180  PMPE      O11            16.8603241423      -34.6515076008      -17.3868228077  MEMB      180             0.0000000000
     22246       180  PMPE      O12            18.3275725736      -34.9542331650      -19.3006256598  MEMB      180             0.0000000000
     22247       180  PMPE      C1             15.9590591871      -34.8898600624      -16.3926480912  MEMB      180             0.0000000000
     22248       180  PMPE      HA             15.5552419203      -35.9247951418      -16.4053769938  MEMB      180             0.0000000000
     22249       180  PMPE      HB             15.0777720332      -34.2180861438      -16.4724826517  MEMB      180             0.0000000000
     22250       180  PMPE      C2             16.6060445120      -34.4445587477      -15.0268935798  MEMB      180             0.0000000000
     22251       180  PMPE      HS             16.9892025731      -33.4107536035      -15.1638522618  MEMB      180             0.0000000000
     22252       180  PMPE      O21            17.6199750572      -35.3983410019      -14.6429623909  MEMB      180             0.0000000000
     22253       180  PMPE      C21            18.8181718461      -35.0152829603      -14.4945569620  MEMB      180             0.0000000000
     22254       180  PMPE      O22            19.3201301940      -33.9162629070      -14.6797705255  MEMB      180             0.0000000000
     22255       180  PMPE      C22            19.6422529865      -36.2026572383      -14.0829603095  MEMB      180             0.0000000000
     22256       180  PMPE      H2R            20.7152722988      -35.9438144852      -14.2092574789  MEMB      180             0.0000000000
     22257       180  PMPE      H2S            19.5087168673      -37.0182233765      -14.8254834951  MEMB      180             0.0000000000
     22258       180  PMPE      C3             15.5484726265      -34.3897790942      -13.9533525838  MEMB      180             0.0000000000
     22259       180  PMPE      HX             15.0311496916      -35.3535252673      -13.7586953219  MEMB      180             0.0000000000
     22260       180  PMPE      HY             14.7677006712      -33.6922073853      -14.3249840134  MEMB      180             0.0000000000
     22261       180  PMPE      O31            16.1519628891      -33.7670937269      -12.8813339637  MEMB      180             0.0000000000
     22262       180  PMPE      C31            16.3442997114      -34.4665267076      -11.7599970250  MEMB      180             0.0000000000
     22263       180  PMPE      O32            16.2489417137      -35.6661085840      -11.5303083370  MEMB      180             0.0000000000
     22264       180  PMPE      C32            16.7728317224      -33.5327614982      -10.6286596909  MEMB      180             0.0000000000
     22265       180  PMPE      H2X            16.0629911862      -32.6812936186      -10.7024842180  MEMB      180             0.0000000000
     22266       180  PMPE      H2Y            17.8017763465      -33.2044064981      -10.8890000180  MEMB      180             0.0000000000
     22267       180  PMPE      C23            19.2864088027      -36.5798575909      -12.6505331446  MEMB      180             0.0000000000
     22268       180  PMPE      H3R            18.2387198069      -36.9492280371      -12.6658386935  MEMB      180             0.0000000000
     22269       180  PMPE      H3S            19.4357557140      -35.8127547797      -11.8608685143  MEMB      180             0.0000000000
     22270       180  PMPE      C24            20.1425138788      -37.8010032181      -12.2117078284  MEMB      180             0.0000000000
     22271       180  PMPE      H4R            21.2292353674      -37.6095253388      -12.0825035112  MEMB      180             0.0000000000
     22272       180  PMPE      H4S            19.9048244591      -38.5605936963      -12.9868513909  MEMB      180             0.0000000000
     22273       180  PMPE      C25            19.6446869418      -38.3479507959      -10.8049305214  MEMB      180             0.0000000000
     22274       180  PMPE      H5R            20.3806783966      -39.1247214742      -10.5061578360  MEMB      180             0.0000000000
     22275       180  PMPE      H5S            18.6729692264      -38.8696771273      -10.9386740683  MEMB      180             0.0000000000
     22276       180  PMPE      C26            19.5808187952      -37.3483313599       -9.7467994632  MEMB      180             0.0000000000
     22277       180  PMPE      H6R            19.0713651885      -37.7706882951       -8.8543915039  MEMB      180             0.0000000000
     22278       180  PMPE      H6S            18.9717854781      -36.4376930850       -9.9315630212  MEMB      180             0.0000000000
     22279       180  PMPE      C27            21.0005510424      -37.0145833356       -9.0684014699  MEMB      180             0.0000000000
     22280       180  PMPE      H7R            21.6672661287      -36.4165912849       -9.7258332236  MEMB      180             0.0000000000
     22281       180  PMPE      H7S            21.4168162373      -38.0385131310       -9.1807042285  MEMB      180             0.0000000000
     22282       180  PMPE      C28            20.9734234143      -36.2833639736       -7.7582656350  MEMB      180             0.0000000000
     22283       180  PMPE      H8R            21.9576930379      -36.2027216623       -7.2493146922  MEMB      180             0.0000000000
     22284       180  PMPE      H8S            20.2320782711      -36.9016507446       -7.2083112556  MEMB      180             0.0000000000
     22285       180  PMPE      C29            20.1949883818      -34.9157571907       -7.8099496987  MEMB      180             0.0000000000
     22286       180  PMPE      H9R            19.2891564980      -34.6718429107       -8.4051769650  MEMB      180             0.0000000000
     22287       180  PMPE      C217           21.2049647206      -33.8296577680       -7.8730596825  MEMB      180             0.0000000000
     22288       180  PMPE      H17R           21.0102949794      -32.9314569934       -8.4459720356  MEMB      180             0.0000000000
     22289       180  PMPE      H17S           22.2454873645      -34.0598489622       -7.6801515338  MEMB      180             0.0000000000
     22290       180  PMPE      C210           20.2848070024      -33.9925121618       -6.6304097828  MEMB      180             0.0000000000
     22291       180  PMPE      H10R           19.3318981567      -33.4212982784       -6.6310976298  MEMB      180             0.0000000000
     22292       180  PMPE      C211           20.9353246026      -34.6515126961       -5.3640564283  MEMB      180             0.0000000000
     22293       180  PMPE      H11R           22.0457824608      -34.6328222172       -5.3348174960  MEMB      180             0.0000000000
     22294       180  PMPE      H11S           20.3970342348      -35.6028341917       -5.1651795776  MEMB      180             0.0000000000
     22295       180  PMPE      C212           20.4281919050      -33.7318751251       -4.1633609011  MEMB      180             0.0000000000
     22296       180  PMPE      H12R           19.3188783940      -33.6859442285       -4.2037987282  MEMB      180             0.0000000000
     22297       180  PMPE      H12S           20.7173888090      -32.6647612633       -4.2726959062  MEMB      180             0.0000000000
     22298       180  PMPE      C213           20.9494148023      -34.2445017916       -2.8347203150  MEMB      180             0.0000000000
     22299       180  PMPE      H13R           20.5790268150      -33.5868459223       -2.0194761240  MEMB      180             0.0000000000
     22300       180  PMPE      H13S           22.0444609341      -34.0652737746       -2.8901518190  MEMB      180             0.0000000000
     22301       180  PMPE      C214           20.4098071530      -35.6870020175       -2.5780271241  MEMB      180             0.0000000000
     22302       180  PMPE      H14R           21.0947544153      -36.3108687775       -3.1911822749  MEMB      180             0.0000000000
     22303       180  PMPE      H14S           19.4220944665      -35.8421850605       -3.0624480746  MEMB      180             0.0000000000
     22304       180  PMPE      C215           20.3003516776      -36.2465947692       -1.1134402138  MEMB      180             0.0000000000
     22305       180  PMPE      H15R           20.3148715493      -37.3570342353       -1.1456037696  MEMB      180             0.0000000000
     22306       180  PMPE      H15S           19.5013093181      -35.6969398012       -0.5714705327  MEMB      180             0.0000000000
     22307       180  PMPE      C216           21.5423636795      -35.7707454447       -0.3002101138  MEMB      180             0.0000000000
     22308       180  PMPE      H16R           21.7220416390      -34.6892902103       -0.4804645200  MEMB      180             0.0000000000
     22309       180  PMPE      H16S           21.3682859516      -36.0319849023        0.7655164510  MEMB      180             0.0000000000
     22310       180  PMPE      H16T           22.4310295968      -36.2920974227       -0.7158846166  MEMB      180             0.0000000000
     22311       180  PMPE      C33            16.6458597135      -34.2219088170       -9.2376579262  MEMB      180             0.0000000000
     22312       180  PMPE      H3X            17.3173634552      -33.6423799970       -8.5686655117  MEMB      180             0.0000000000
     22313       180  PMPE      H3Y            17.0666445893      -35.2487300157       -9.2915043574  MEMB      180             0.0000000000
     22314       180  PMPE      C34            15.2412144063      -34.3487889246       -8.5923391986  MEMB      180             0.0000000000
     22315       180  PMPE      H4X            14.5189434244      -34.9836084367       -9.1488015082  MEMB      180             0.0000000000
     22316       180  PMPE      H4Y            14.7509434139      -33.3619951093       -8.7344435178  MEMB      180             0.0000000000
     22317       180  PMPE      C35            15.4207750545      -34.7250940030       -7.1217262881  MEMB      180             0.0000000000
     22318       180  PMPE      H5X            14.4067617721      -35.0403143128       -6.7950237965  MEMB      180             0.0000000000
     22319       180  PMPE      H5Y            15.6232372132      -33.7855566860       -6.5644110826  MEMB      180             0.0000000000
     22320       180  PMPE      C36            16.3319652202      -35.8005939327       -6.6696640156  MEMB      180             0.0000000000
     22321       180  PMPE      H6X            17.3929830488      -35.4768628397       -6.7309861446  MEMB      180             0.0000000000
     22322       180  PMPE      H6Y            16.3366120811      -36.7139895641       -7.3021256647  MEMB      180             0.0000000000
     22323       180  PMPE      C37            16.1428386859      -36.0519773505       -5.1969919570  MEMB      180             0.0000000000
     22324       180  PMPE      H7X            15.0749498867      -36.3151913216       -5.0399790715  MEMB      180             0.0000000000
     22325       180  PMPE      H7Y            16.3121468229      -35.0963265682       -4.6562632733  MEMB      180             0.0000000000
     22326       180  PMPE      C38            17.0501603932      -37.1399469318       -4.4398264688  MEMB      180             0.0000000000
     22327       180  PMPE      H8X            18.1009194255      -36.7858896103       -4.5096092055  MEMB      180             0.0000000000
     22328       180  PMPE      H8Y            17.0463566469      -38.1499535229       -4.9026363510  MEMB      180             0.0000000000
     22329       180  PMPE      C39            16.7456899833      -37.3292694530       -2.9480770655  MEMB      180             0.0000000000
     22330       180  PMPE      H9X            16.5616727360      -36.3207470817       -2.5198931861  MEMB      180             0.0000000000
     22331       180  PMPE      H9Y            17.7416807495      -37.6827675340       -2.6054952637  MEMB      180             0.0000000000
     22332       180  PMPE      C310           15.5613511227      -38.2427698802       -2.8771352124  MEMB      180             0.0000000000
     22333       180  PMPE      H10X           15.7587432590      -39.2319207465       -3.3429005676  MEMB      180             0.0000000000
     22334       180  PMPE      H10Y           14.6481411948      -37.8751991210       -3.3921692066  MEMB      180             0.0000000000
     22335       180  PMPE      C311           15.0859823549      -38.4600161667       -1.4353922337  MEMB      180             0.0000000000
     22336       180  PMPE      H11X           14.2768207268      -39.2197879954       -1.3871617104  MEMB      180             0.0000000000
     22337       180  PMPE      H11Y           14.5384646647      -37.5768664276       -1.0422105312  MEMB      180             0.0000000000
     22338       180  PMPE      C312           16.1638501869      -38.9500062599       -0.4948341931  MEMB      180             0.0000000000
     22339       180  PMPE      H12X           17.0250232352      -38.2504756791       -0.5527940011  MEMB      180             0.0000000000
     22340       180  PMPE      H12Y           16.5416853187      -39.8809746127       -0.9690276186  MEMB      180             0.0000000000
     22341       180  PMPE      C313           15.7751132293      -39.1648225188        0.9423356162  MEMB      180             0.0000000000
     22342       180  PMPE      H13X           16.4920969703      -39.8214530754        1.4800066479  MEMB      180             0.0000000000
     22343       180  PMPE      H13Y           14.8538822247      -39.7822608833        0.8758189858  MEMB      180             0.0000000000
     22344       180  PMPE      C314           15.5265228688      -37.8846529325        1.6453244396  MEMB      180             0.0000000000
     22345       180  PMPE      H14X           14.4681579904      -37.8607199274        1.9823886122  MEMB      180             0.0000000000
     22346       180  PMPE      H14Y           15.5960915434      -37.0400974462        0.9268477527  MEMB      180             0.0000000000
     22347       180  PMPE      C315           16.4953771420      -37.5061419085        2.8290600596  MEMB      180             0.0000000000
     22348       180  PMPE      H15X           16.1005215305      -37.8960363743        3.7915519393  MEMB      180             0.0000000000
     22349       180  PMPE      H15Y           16.4266657690      -36.4010709984        2.9208106665  MEMB      180             0.0000000000
     22350       180  PMPE      C316           17.9936419482      -37.7852267884        2.6613497068  MEMB      180             0.0000000000
     22351       180  PMPE      H16X           18.3922663086      -38.7792885272        2.9567485520  MEMB      180             0.0000000000
     22352       180  PMPE      H16Y           18.5730683244      -37.0234803916        3.2255562109  MEMB      180             0.0000000000
     22353       180  PMPE      H16Z           18.2857383710      -37.7559870466        1.5898345299  MEMB      180             0.0000000000
     22354       181  PYPG      C13           -37.6826829756       -3.9623928892      -20.7059768134  MEMB      181             0.0000000000
     22355       181  PYPG      H13A          -38.1511105394       -4.7798731646      -20.1172301177  MEMB      181             0.0000000000
     22356       181  PYPG      H13B          -37.5970603389       -4.2945058279      -21.7627126801  MEMB      181             0.0000000000
     22357       181  PYPG      OC3           -36.4114458393       -3.7220005321      -20.1325016760  MEMB      181             0.0000000000
     22358       181  PYPG      HO3           -36.4995842559       -2.8799410482      -19.6799894216  MEMB      181             0.0000000000
     22359       181  PYPG      C12           -38.5654316630       -2.6783280170      -20.5649615186  MEMB      181             0.0000000000
     22360       181  PYPG      H12A          -39.5738726382       -2.9233963493      -20.9721068882  MEMB      181             0.0000000000
     22361       181  PYPG      OC2           -38.0193114110       -1.6172005806      -21.3496921248  MEMB      181             0.0000000000
     22362       181  PYPG      HO2           -38.5614953195       -0.8430635305      -21.0823622218  MEMB      181             0.0000000000
     22363       181  PYPG      C11           -38.7178340625       -2.2539614660      -19.0530914952  MEMB      181             0.0000000000
     22364       181  PYPG      H11A          -37.8001409201       -2.2276918482      -18.4274157258  MEMB      181             0.0000000000
     22365       181  PYPG      H11B          -39.3473031144       -3.0724052615      -18.6429214441  MEMB      181             0.0000000000
     22366       181  PYPG      P             -40.1063690296       -0.6056161014      -17.5746971930  MEMB      181             0.0000000000
     22367       181  PYPG      O13           -40.9381945947        0.5997465829      -17.8132415720  MEMB      181             0.0000000000
     22368       181  PYPG      O14           -39.0004825693       -0.4823204993      -16.5695961855  MEMB      181             0.0000000000
     22369       181  PYPG      O11           -40.9961039229       -1.8780708180      -17.3455441117  MEMB      181             0.0000000000
     22370       181  PYPG      O12           -39.3153865699       -1.0119122023      -18.8906972876  MEMB      181             0.0000000000
     22371       181  PYPG      C1            -42.2193362404       -2.0256499390      -18.0619177708  MEMB      181             0.0000000000
     22372       181  PYPG      HA            -42.0441483246       -2.1540868392      -19.1514746175  MEMB      181             0.0000000000
     22373       181  PYPG      HB            -42.9515427718       -1.2217973998      -17.8338479691  MEMB      181             0.0000000000
     22374       181  PYPG      C2            -42.8540275976       -3.2604509898      -17.5896116422  MEMB      181             0.0000000000
     22375       181  PYPG      HS            -43.9090453239       -3.2023530576      -17.9329528408  MEMB      181             0.0000000000
     22376       181  PYPG      O21           -42.8824219356       -3.3573346385      -16.1716198045  MEMB      181             0.0000000000
     22377       181  PYPG      C21           -43.4892478272       -2.4498721507      -15.4846275924  MEMB      181             0.0000000000
     22378       181  PYPG      O22           -44.4143052647       -1.7363399096      -15.8382329621  MEMB      181             0.0000000000
     22379       181  PYPG      C22           -43.0023576955       -2.5540792905      -14.0617278507  MEMB      181             0.0000000000
     22380       181  PYPG      H2R           -43.4488218472       -1.7139391290      -13.4880070519  MEMB      181             0.0000000000
     22381       181  PYPG      H2S           -41.9009696757       -2.4439697494      -14.1573374702  MEMB      181             0.0000000000
     22382       181  PYPG      C3            -42.1758707188       -4.6116126340      -17.9653324358  MEMB      181             0.0000000000
     22383       181  PYPG      HX            -41.9587906665       -4.7039632358      -19.0509975035  MEMB      181             0.0000000000
     22384       181  PYPG      HY            -42.7810801088       -5.4210345987      -17.5039447084  MEMB      181             0.0000000000
     22385       181  PYPG      O31           -40.8650239650       -4.6734498946      -17.4007390521  MEMB      181             0.0000000000
     22386       181  PYPG      C31           -40.3466615403       -5.8955611822      -17.0419695729  MEMB      181             0.0000000000
     22387       181  PYPG      O32           -40.8975557821       -6.9539573553      -17.1490915989  MEMB      181             0.0000000000
     22388       181  PYPG      C32           -38.9912350754       -5.6192323414      -16.3568640965  MEMB      181             0.0000000000
     22389       181  PYPG      H2X           -38.3872694348       -6.5449993872      -16.4686768190  MEMB      181             0.0000000000
     22390       181  PYPG      H2Y           -38.5345255389       -4.7785999985      -16.9217311865  MEMB      181             0.0000000000
     22391       181  PYPG      C23           -43.5209746524       -3.8371177249      -13.4947878299  MEMB      181             0.0000000000
     22392       181  PYPG      H3R           -43.1032243245       -4.7234533419      -14.0184429190  MEMB      181             0.0000000000
     22393       181  PYPG      H3S           -44.5962885355       -3.9234039950      -13.7604490297  MEMB      181             0.0000000000
     22394       181  PYPG      C24           -43.4648703072       -3.8966370917      -11.9360581262  MEMB      181             0.0000000000
     22395       181  PYPG      H4R           -44.4958830368       -3.6316381402      -11.6180806023  MEMB      181             0.0000000000
     22396       181  PYPG      H4S           -42.7568071556       -3.1194168901      -11.5770364849  MEMB      181             0.0000000000
     22397       181  PYPG      C25           -43.0441057383       -5.2821244079      -11.3776529300  MEMB      181             0.0000000000
     22398       181  PYPG      H5R           -42.0282379794       -5.5270171513      -11.7549612110  MEMB      181             0.0000000000
     22399       181  PYPG      H5S           -43.7221131217       -6.0734245570      -11.7629720419  MEMB      181             0.0000000000
     22400       181  PYPG      C26           -43.1673202095       -5.2925612983       -9.8237775683  MEMB      181             0.0000000000
     22401       181  PYPG      H6R           -44.1597951102       -4.9999300002       -9.4192004035  MEMB      181             0.0000000000
     22402       181  PYPG      H6S           -42.3129829855       -4.6643521225       -9.4924433449  MEMB      181             0.0000000000
     22403       181  PYPG      C27           -42.9092174118       -6.6234258475       -9.1984056718  MEMB      181             0.0000000000
     22404       181  PYPG      H7R           -41.9320874873       -7.0311315219       -9.5350269086  MEMB      181             0.0000000000
     22405       181  PYPG      H7S           -43.7044079921       -7.3483002594       -9.4750821016  MEMB      181             0.0000000000
     22406       181  PYPG      C28           -42.7518206680       -6.6365837962       -7.6372354804  MEMB      181             0.0000000000
     22407       181  PYPG      H8R           -42.6249241121       -7.6866987096       -7.2974170093  MEMB      181             0.0000000000
     22408       181  PYPG      H8S           -43.7067469594       -6.2583875357       -7.2136737700  MEMB      181             0.0000000000
     22409       181  PYPG      C29           -41.5352431905       -5.8828856746       -7.1330925733  MEMB      181             0.0000000000
     22410       181  PYPG      H9R           -40.6415512704       -6.4681074239       -7.3954472261  MEMB      181             0.0000000000
     22411       181  PYPG      C210          -41.5511417895       -4.7395133571       -6.3636379269  MEMB      181             0.0000000000
     22412       181  PYPG      H10R          -40.5936913764       -4.2448446987       -6.1432030808  MEMB      181             0.0000000000
     22413       181  PYPG      C211          -42.8105652503       -4.0326169501       -5.8730406575  MEMB      181             0.0000000000
     22414       181  PYPG      H11R          -43.5366049299       -3.8819696007       -6.7003818374  MEMB      181             0.0000000000
     22415       181  PYPG      H11S          -42.5155149120       -2.9810465242       -5.6694088732  MEMB      181             0.0000000000
     22416       181  PYPG      C212          -43.5009295340       -4.6543752107       -4.6254726195  MEMB      181             0.0000000000
     22417       181  PYPG      H12R          -43.2209899231       -5.7191818489       -4.4766711417  MEMB      181             0.0000000000
     22418       181  PYPG      H12S          -44.6102405298       -4.6221750323       -4.6775603837  MEMB      181             0.0000000000
     22419       181  PYPG      C213          -43.1427455138       -3.8753853895       -3.3155051700  MEMB      181             0.0000000000
     22420       181  PYPG      H13R          -43.4438647673       -2.8175321213       -3.4723317155  MEMB      181             0.0000000000
     22421       181  PYPG      H13S          -42.0765959240       -3.8249260570       -3.0071225218  MEMB      181             0.0000000000
     22422       181  PYPG      C214          -43.8285016393       -4.4706906280       -2.0413541701  MEMB      181             0.0000000000
     22423       181  PYPG      H14R          -44.9261295705       -4.4518220301       -2.2121690939  MEMB      181             0.0000000000
     22424       181  PYPG      H14S          -43.5536321305       -5.5305758938       -1.8531765868  MEMB      181             0.0000000000
     22425       181  PYPG      C215          -43.6905687553       -3.7015388757       -0.7098956565  MEMB      181             0.0000000000
     22426       181  PYPG      H15R          -42.5864390047       -3.6597471345       -0.5938247514  MEMB      181             0.0000000000
     22427       181  PYPG      H15S          -44.0792713035       -4.3486597126        0.1052514067  MEMB      181             0.0000000000
     22428       181  PYPG      C216          -44.3047495246       -2.2457668828       -0.7165895958  MEMB      181             0.0000000000
     22429       181  PYPG      H16R          -45.4053832298       -2.2754956889       -0.8650595078  MEMB      181             0.0000000000
     22430       181  PYPG      H16S          -43.7792588873       -1.6503997742       -1.4935816310  MEMB      181             0.0000000000
     22431       181  PYPG      H16T          -44.1201103126       -1.8740564686        0.3139734818  MEMB      181             0.0000000000
     22432       181  PYPG      C33           -39.1489554905       -5.3275483641      -14.9357309666  MEMB      181             0.0000000000
     22433       181  PYPG      H3X           -38.2668443690       -5.6918320551      -14.3669621824  MEMB      181             0.0000000000
     22434       181  PYPG      H3Y           -39.9987373843       -5.8752479429      -14.4750610137  MEMB      181             0.0000000000
     22435       181  PYPG      C34           -39.2624796305       -3.7708298672      -14.6536044638  MEMB      181             0.0000000000
     22436       181  PYPG      H4X           -40.1568758777       -3.5375174473      -15.2699986178  MEMB      181             0.0000000000
     22437       181  PYPG      H4Y           -38.3104804951       -3.4186894090      -15.1052853432  MEMB      181             0.0000000000
     22438       181  PYPG      C35           -39.2388150053       -3.3036109702      -13.2491945120  MEMB      181             0.0000000000
     22439       181  PYPG      H5X           -38.4737906326       -3.7001093588      -12.5478757143  MEMB      181             0.0000000000
     22440       181  PYPG      H5Y           -40.2313018651       -3.7141679746      -12.9650576621  MEMB      181             0.0000000000
     22441       181  PYPG      C36           -39.3183043797       -1.8310944398      -12.8819786506  MEMB      181             0.0000000000
     22442       181  PYPG      H6X           -40.0183336408       -1.3909645283      -13.6239796971  MEMB      181             0.0000000000
     22443       181  PYPG      H6Y           -38.2892524601       -1.4780169135      -13.1071674648  MEMB      181             0.0000000000
     22444       181  PYPG      C37           -39.7549661533       -1.6779859427      -11.4089454775  MEMB      181             0.0000000000
     22445       181  PYPG      H7X           -40.4811382198       -2.4542881859      -11.0859127421  MEMB      181             0.0000000000
     22446       181  PYPG      H7Y           -38.8702504579       -1.9077742595      -10.7774421160  MEMB      181             0.0000000000
     22447       181  PYPG      C38           -40.2760317863       -0.2481802325      -11.1990115660  MEMB      181             0.0000000000
     22448       181  PYPG      H8X           -40.9615101551       -0.0192255690      -12.0428244119  MEMB      181             0.0000000000
     22449       181  PYPG      H8Y           -39.3957732139        0.4296427129      -11.2036680442  MEMB      181             0.0000000000
     22450       181  PYPG      C39           -41.0040144677        0.0575144145       -9.9558052861  MEMB      181             0.0000000000
     22451       181  PYPG      H9X           -41.0283784112        1.1158434939       -9.6186602097  MEMB      181             0.0000000000
     22452       181  PYPG      H9Y           -40.4658132252       -0.4421430232       -9.1221372025  MEMB      181             0.0000000000
     22453       181  PYPG      C310          -42.4511123229       -0.5433631908       -9.9186280547  MEMB      181             0.0000000000
     22454       181  PYPG      H10X          -42.3725641988       -1.4992845244      -10.4793110872  MEMB      181             0.0000000000
     22455       181  PYPG      H10Y          -43.0606733551        0.1657292143      -10.5185818677  MEMB      181             0.0000000000
     22456       181  PYPG      C311          -42.9871703231       -0.9526137859       -8.5241357268  MEMB      181             0.0000000000
     22457       181  PYPG      H11X          -42.3896681473       -1.8019241434       -8.1291875942  MEMB      181             0.0000000000
     22458       181  PYPG      H11Y          -44.0255646155       -1.3293497916       -8.6429978872  MEMB      181             0.0000000000
     22459       181  PYPG      C312          -43.0613805828        0.2323906930       -7.4919893126  MEMB      181             0.0000000000
     22460       181  PYPG      H12X          -42.1557979961        0.8742969625       -7.5388650174  MEMB      181             0.0000000000
     22461       181  PYPG      H12Y          -44.0066865910        0.7808710549       -7.6917059756  MEMB      181             0.0000000000
     22462       181  PYPG      C313          -43.0999282648       -0.2970720345       -6.0821314281  MEMB      181             0.0000000000
     22463       181  PYPG      H13X          -43.8052263249       -1.1549605497       -6.0520895231  MEMB      181             0.0000000000
     22464       181  PYPG      H13Y          -42.0997745153       -0.7546024805       -5.9250336845  MEMB      181             0.0000000000
     22465       181  PYPG      C314          -43.4924685063        0.8621870768       -5.1007181628  MEMB      181             0.0000000000
     22466       181  PYPG      H14X          -42.8044382059        1.6716655965       -5.4258029931  MEMB      181             0.0000000000
     22467       181  PYPG      H14Y          -44.5826359515        1.0470964304       -5.2087186527  MEMB      181             0.0000000000
     22468       181  PYPG      C315          -43.0684856561        0.5082093357       -3.6881979769  MEMB      181             0.0000000000
     22469       181  PYPG      H15X          -43.7067743973       -0.3596867632       -3.4167843005  MEMB      181             0.0000000000
     22470       181  PYPG      H15Y          -41.9800650943        0.2948151754       -3.7524140383  MEMB      181             0.0000000000
     22471       181  PYPG      C316          -43.2236807873        1.5390142423       -2.5458108753  MEMB      181             0.0000000000
     22472       181  PYPG      H16X          -42.6875834587        1.2384083330       -1.6203064431  MEMB      181             0.0000000000
     22473       181  PYPG      H16Y          -44.2560470289        1.8304352862       -2.2566462515  MEMB      181             0.0000000000
     22474       181  PYPG      H16Z          -42.7398635094        2.5069747814       -2.7973944967  MEMB      181             0.0000000000
     22475       182  OYPE      N              13.5188356622       35.6157235269      -20.2511325910  MEMB      182             0.0000000000
     22476       182  OYPE      HN1            12.9319905859       34.9835835101      -20.8321763632  MEMB      182             0.0000000000
     22477       182  OYPE      HN2            13.0794582170       35.7766856227      -19.3223490763  MEMB      182             0.0000000000
     22478       182  OYPE      HN3            13.8487612009       36.4813668438      -20.7237958416  MEMB      182             0.0000000000
     22479       182  OYPE      C12            14.7837917456       34.7205144167      -20.0844471602  MEMB      182             0.0000000000
     22480       182  OYPE      H12A           15.3225652863       34.8524929242      -21.0470611093  MEMB      182             0.0000000000
     22481       182  OYPE      H12B           14.3383645607       33.7049131078      -20.0175907223  MEMB      182             0.0000000000
     22482       182  OYPE      C11            15.5850750863       35.1477028881      -18.8956613684  MEMB      182             0.0000000000
     22483       182  OYPE      H11A           16.2917080839       34.3134589533      -18.6981064939  MEMB      182             0.0000000000
     22484       182  OYPE      H11B           14.9054614615       35.3410187612      -18.0382960571  MEMB      182             0.0000000000
     22485       182  OYPE      P              16.1433885092       37.7250711770      -18.5814834432  MEMB      182             0.0000000000
     22486       182  OYPE      O13            14.8658178160       38.3559120677      -19.1095229248  MEMB      182             0.0000000000
     22487       182  OYPE      O14            17.3813962593       38.5147563616      -18.6999072292  MEMB      182             0.0000000000
     22488       182  OYPE      O11            15.9535807841       37.3472843233      -17.0728987867  MEMB      182             0.0000000000
     22489       182  OYPE      O12            16.3063229373       36.3278056369      -19.3049464967  MEMB      182             0.0000000000
     22490       182  OYPE      C1             14.9920613858       38.1064915753      -16.2497659586  MEMB      182             0.0000000000
     22491       182  OYPE      HA             14.0335105955       37.5492511042      -16.1791652552  MEMB      182             0.0000000000
     22492       182  OYPE      HB             14.7265764274       39.0762189501      -16.7224895161  MEMB      182             0.0000000000
     22493       182  OYPE      C2             15.4572324805       38.3241171189      -14.8011612194  MEMB      182             0.0000000000
     22494       182  OYPE      HS             16.2494358855       39.1030487167      -14.8016498367  MEMB      182             0.0000000000
     22495       182  OYPE      O21            16.0203299305       37.0954161085      -14.2665806995  MEMB      182             0.0000000000
     22496       182  OYPE      C21            17.1973151494       37.1329815029      -13.6727457304  MEMB      182             0.0000000000
     22497       182  OYPE      O22            17.7505101059       38.0937144599      -13.2140931645  MEMB      182             0.0000000000
     22498       182  OYPE      C22            17.7050833548       35.6678177464      -13.6656134689  MEMB      182             0.0000000000
     22499       182  OYPE      H2R            18.3015806849       35.3949593163      -14.5623075436  MEMB      182             0.0000000000
     22500       182  OYPE      H2S            16.9036916164       34.9002280069      -13.7194475219  MEMB      182             0.0000000000
     22501       182  OYPE      C3             14.3942972278       38.8122836207      -13.8139126702  MEMB      182             0.0000000000
     22502       182  OYPE      HX             13.5448760525       38.0980861014      -13.8661276845  MEMB      182             0.0000000000
     22503       182  OYPE      HY             13.9717630705       39.7612381138      -14.2079579249  MEMB      182             0.0000000000
     22504       182  OYPE      O31            14.8558527586       38.9230132050      -12.4586885660  MEMB      182             0.0000000000
     22505       182  OYPE      C31            15.5072782927       40.0751727972      -12.1221131935  MEMB      182             0.0000000000
     22506       182  OYPE      O32            15.4975816485       41.0394643317      -12.8487116662  MEMB      182             0.0000000000
     22507       182  OYPE      C32            16.3389680650       39.9502898522      -10.8515971994  MEMB      182             0.0000000000
     22508       182  OYPE      H2X            17.2456294090       39.3231090968      -10.9891840872  MEMB      182             0.0000000000
     22509       182  OYPE      H2Y            16.8153511211       40.9466454295      -10.7305360851  MEMB      182             0.0000000000
     22510       182  OYPE      C23            18.7243748750       35.4027815770      -12.5582694880  MEMB      182             0.0000000000
     22511       182  OYPE      H3R            19.4670633579       36.2189676115      -12.4295262637  MEMB      182             0.0000000000
     22512       182  OYPE      H3S            19.3097219904       34.5104443093      -12.8671773196  MEMB      182             0.0000000000
     22513       182  OYPE      C24            18.0388973886       35.3727108837      -11.1925838885  MEMB      182             0.0000000000
     22514       182  OYPE      H4R            17.5338997121       36.3622172602      -11.1793331703  MEMB      182             0.0000000000
     22515       182  OYPE      H4S            18.8432411061       35.4764063032      -10.4332426785  MEMB      182             0.0000000000
     22516       182  OYPE      C25            17.1064302404       34.2536792731      -10.9487773606  MEMB      182             0.0000000000
     22517       182  OYPE      H5R            17.6115151910       33.3293788991      -11.3021602222  MEMB      182             0.0000000000
     22518       182  OYPE      H5S            16.2132544355       34.2789384764      -11.6090199182  MEMB      182             0.0000000000
     22519       182  OYPE      C26            16.6999502403       34.1826629235       -9.4558135205  MEMB      182             0.0000000000
     22520       182  OYPE      H6R            17.4739935789       34.4940060084       -8.7221630584  MEMB      182             0.0000000000
     22521       182  OYPE      H6S            16.4388000570       33.1363203608       -9.1888150362  MEMB      182             0.0000000000
     22522       182  OYPE      C27            15.4105351024       34.9365419944       -9.1197476488  MEMB      182             0.0000000000
     22523       182  OYPE      H7R            14.6367077864       34.5873877925       -9.8364088548  MEMB      182             0.0000000000
     22524       182  OYPE      H7S            15.6425141902       36.0060750912       -9.3110724215  MEMB      182             0.0000000000
     22525       182  OYPE      C28            14.8227550212       34.6789408725       -7.7297824387  MEMB      182             0.0000000000
     22526       182  OYPE      H8R            14.4556845924       33.6308076456       -7.6982055938  MEMB      182             0.0000000000
     22527       182  OYPE      H8S            13.9045039609       35.2936665882       -7.8448830002  MEMB      182             0.0000000000
     22528       182  OYPE      C29            15.5288955213       35.0612564255       -6.4502399021  MEMB      182             0.0000000000
     22529       182  OYPE      H9R            16.0968725372       36.0025070937       -6.4121719464  MEMB      182             0.0000000000
     22530       182  OYPE      C210           15.0995432624       34.5079777423       -5.3023616835  MEMB      182             0.0000000000
     22531       182  OYPE      H10R           15.6332183024       34.7726720511       -4.3776302641  MEMB      182             0.0000000000
     22532       182  OYPE      C211           13.9391806470       33.5357719341       -5.0230677716  MEMB      182             0.0000000000
     22533       182  OYPE      H11R           14.2360179134       32.6851402619       -4.3729642872  MEMB      182             0.0000000000
     22534       182  OYPE      H11S           13.4016846029       33.1694771051       -5.9237599184  MEMB      182             0.0000000000
     22535       182  OYPE      C212           12.9823397442       34.2099098541       -4.0897253129  MEMB      182             0.0000000000
     22536       182  OYPE      H12R           11.9765447232       33.7689398542       -4.2577809650  MEMB      182             0.0000000000
     22537       182  OYPE      H12S           12.8847624309       35.2984664666       -4.2893354369  MEMB      182             0.0000000000
     22538       182  OYPE      C213           13.4644837936       34.2532440376       -2.6402541855  MEMB      182             0.0000000000
     22539       182  OYPE      H13R           12.8089975028       34.9837128102       -2.1196058797  MEMB      182             0.0000000000
     22540       182  OYPE      H13S           14.4725940329       34.7200487911       -2.6289257132  MEMB      182             0.0000000000
     22541       182  OYPE      C214           13.3362187003       32.9064779562       -1.9328332468  MEMB      182             0.0000000000
     22542       182  OYPE      H14R           13.8460691821       32.0312772021       -2.3893397758  MEMB      182             0.0000000000
     22543       182  OYPE      H14S           12.3164371720       32.5790592534       -2.2280696790  MEMB      182             0.0000000000
     22544       182  OYPE      C215           13.7120600248       33.0870353106       -0.5081816766  MEMB      182             0.0000000000
     22545       182  OYPE      H15R           13.4490909415       32.2499938561        0.1733826462  MEMB      182             0.0000000000
     22546       182  OYPE      H15S           12.9928652708       33.8143587659       -0.0744997855  MEMB      182             0.0000000000
     22547       182  OYPE      C216           15.1613081810       33.6083558242       -0.2095761200  MEMB      182             0.0000000000
     22548       182  OYPE      H16R           15.8538442673       32.9322546897       -0.7551062474  MEMB      182             0.0000000000
     22549       182  OYPE      H16S           15.5822564698       33.4773115622        0.8102048307  MEMB      182             0.0000000000
     22550       182  OYPE      H16T           15.3973253083       34.6364421077       -0.5583660869  MEMB      182             0.0000000000
     22551       182  OYPE      C33            15.5057545325       39.5137842632       -9.6230680239  MEMB      182             0.0000000000
     22552       182  OYPE      H3X            15.1926903005       38.4580582312       -9.7705613984  MEMB      182             0.0000000000
     22553       182  OYPE      H3Y            14.5448047086       40.0689220656       -9.5709271249  MEMB      182             0.0000000000
     22554       182  OYPE      C34            16.1532939460       39.6873997858       -8.2827409436  MEMB      182             0.0000000000
     22555       182  OYPE      H4X            17.1700552693       39.3559268284       -7.9816709027  MEMB      182             0.0000000000
     22556       182  OYPE      H4Y            16.2720383674       40.7806662434       -8.1246600843  MEMB      182             0.0000000000
     22557       182  OYPE      C35            15.3500554957       38.9767252821       -7.1674668688  MEMB      182             0.0000000000
     22558       182  OYPE      H5X            15.6197052594       39.3283814737       -6.1486695170  MEMB      182             0.0000000000
     22559       182  OYPE      H5Y            15.3520368760       37.8657288546       -7.1694335107  MEMB      182             0.0000000000
     22560       182  OYPE      C36            13.8693573237       39.3540577538       -7.1538988046  MEMB      182             0.0000000000
     22561       182  OYPE      H6X            13.7614264867       40.4347844896       -7.3877821726  MEMB      182             0.0000000000
     22562       182  OYPE      H6Y            13.3843630227       38.8269033321       -8.0031392646  MEMB      182             0.0000000000
     22563       182  OYPE      C37            13.1815828567       38.9335211026       -5.8803267311  MEMB      182             0.0000000000
     22564       182  OYPE      H7X            13.4549695738       37.8874520330       -5.6247489646  MEMB      182             0.0000000000
     22565       182  OYPE      H7Y            13.6005298769       39.6143081961       -5.1087483265  MEMB      182             0.0000000000
     22566       182  OYPE      C38            11.6267762671       38.9864367438       -5.9228273121  MEMB      182             0.0000000000
     22567       182  OYPE      H8X            11.3939025747       40.0700959525       -5.9988093334  MEMB      182             0.0000000000
     22568       182  OYPE      H8Y            11.3648527892       38.4147370680       -6.8387290432  MEMB      182             0.0000000000
     22569       182  OYPE      C39            10.8359055585       38.4037821365       -4.7869117619  MEMB      182             0.0000000000
     22570       182  OYPE      H9X             9.8514956736       37.9705763227       -5.0177145544  MEMB      182             0.0000000000
     22571       182  OYPE      C310           11.1279023871       38.4823550285       -3.4698149280  MEMB      182             0.0000000000
     22572       182  OYPE      H10X           10.3758614310       38.0571046862       -2.7889359033  MEMB      182             0.0000000000
     22573       182  OYPE      C311           12.2937042558       39.1854173910       -2.8414802118  MEMB      182             0.0000000000
     22574       182  OYPE      H11X           12.6385172052       39.9935014704       -3.5214990343  MEMB      182             0.0000000000
     22575       182  OYPE      H11Y           11.8290284373       39.7030847275       -1.9752133013  MEMB      182             0.0000000000
     22576       182  OYPE      C312           13.5755125446       38.4673528019       -2.4946770234  MEMB      182             0.0000000000
     22577       182  OYPE      H12X           14.1051341102       38.2875948196       -3.4546296239  MEMB      182             0.0000000000
     22578       182  OYPE      H12Y           13.2221754571       37.5025240160       -2.0720903881  MEMB      182             0.0000000000
     22579       182  OYPE      C313           14.5224472520       39.2770788131       -1.5970157296  MEMB      182             0.0000000000
     22580       182  OYPE      H13X           14.7739627927       40.2779655421       -2.0084604421  MEMB      182             0.0000000000
     22581       182  OYPE      H13Y           13.9385479540       39.4453323120       -0.6669230894  MEMB      182             0.0000000000
     22582       182  OYPE      C314           15.8074967227       38.5238647952       -1.3797670518  MEMB      182             0.0000000000
     22583       182  OYPE      H14X           15.5370104171       37.5212046102       -0.9850137708  MEMB      182             0.0000000000
     22584       182  OYPE      H14Y           16.5616775285       39.0776883117       -0.7807581797  MEMB      182             0.0000000000
     22585       182  OYPE      C315           16.4458382470       38.1866492733       -2.7772186081  MEMB      182             0.0000000000
     22586       182  OYPE      H15X           16.1756523033       39.0014159066       -3.4825378065  MEMB      182             0.0000000000
     22587       182  OYPE      H15Y           16.0120412498       37.2894636702       -3.2683384697  MEMB      182             0.0000000000
     22588       182  OYPE      C316           18.0224395663       38.0048900670       -2.6555095949  MEMB      182             0.0000000000
     22589       182  OYPE      H16X           18.4977055570       38.9483068528       -2.3114046321  MEMB      182             0.0000000000
     22590       182  OYPE      H16Y           18.3648566444       37.9206584763       -3.7090642153  MEMB      182             0.0000000000
     22591       182  OYPE      C317           18.3053315320       36.8055185284       -1.8476862645  MEMB      182             0.0000000000
     22592       182  OYPE      H17X           18.1868912077       36.9766857554       -0.7563586805  MEMB      182             0.0000000000
     22593       182  OYPE      H17Y           19.4032229654       36.6378158310       -1.8765146983  MEMB      182             0.0000000000
     22594       182  OYPE      C318           17.6381342802       35.4307961760       -2.3179668109  MEMB      182             0.0000000000
     22595       182  OYPE      H18X           17.9007189346       34.5992448310       -1.6295681435  MEMB      182             0.0000000000
     22596       182  OYPE      H18Y           16.5395019226       35.5950048991       -2.2989085356  MEMB      182             0.0000000000
     22597       182  OYPE      H18Z           17.9806271600       35.0980632919       -3.3211163348  MEMB      182             0.0000000000
     22598       183  PMPE      N              -6.7823740090      -43.2185072737      -19.6924151100  MEMB      183             0.0000000000
     22599       183  PMPE      HN1            -6.1764898401      -43.7291738152      -20.3660054830  MEMB      183             0.0000000000
     22600       183  PMPE      HN2            -7.4479147927      -43.9287830315      -19.3261311974  MEMB      183             0.0000000000
     22601       183  PMPE      HN3            -7.2421931851      -42.4548834601      -20.2281810253  MEMB      183             0.0000000000
     22602       183  PMPE      C12            -6.0619211161      -42.7159524608      -18.4952650641  MEMB      183             0.0000000000
     22603       183  PMPE      H12A           -5.1305702875      -43.3155723628      -18.4094591342  MEMB      183             0.0000000000
     22604       183  PMPE      H12B           -6.7487946646      -42.9064148536      -17.6430622825  MEMB      183             0.0000000000
     22605       183  PMPE      C11            -5.8045642908      -41.1655962355      -18.6531373432  MEMB      183             0.0000000000
     22606       183  PMPE      H11A           -5.2719229953      -40.9287364526      -19.5989236065  MEMB      183             0.0000000000
     22607       183  PMPE      H11B           -4.9276000489      -40.9673965335      -18.0004722061  MEMB      183             0.0000000000
     22608       183  PMPE      P              -7.1875102642      -39.0087787116      -19.1236479897  MEMB      183             0.0000000000
     22609       183  PMPE      O13            -8.5995111201      -38.6732576253      -18.9193913428  MEMB      183             0.0000000000
     22610       183  PMPE      O14            -6.6794037264      -39.0040876923      -20.5328192433  MEMB      183             0.0000000000
     22611       183  PMPE      O11            -6.3348425844      -38.0689727097      -18.1755085779  MEMB      183             0.0000000000
     22612       183  PMPE      O12            -6.9040607642      -40.3283133287      -18.4078153288  MEMB      183             0.0000000000
     22613       183  PMPE      C1             -6.7515326810      -37.5918194211      -16.8762864058  MEMB      183             0.0000000000
     22614       183  PMPE      HA             -7.8618886292      -37.5586868545      -16.8580361031  MEMB      183             0.0000000000
     22615       183  PMPE      HB             -6.4950091238      -36.5160288159      -16.7704985978  MEMB      183             0.0000000000
     22616       183  PMPE      C2             -6.1425835611      -38.4357521579      -15.7062949629  MEMB      183             0.0000000000
     22617       183  PMPE      HS             -5.2776744080      -39.0195961293      -16.0875815116  MEMB      183             0.0000000000
     22618       183  PMPE      O21            -7.1839849256      -39.3030206225      -15.3603774564  MEMB      183             0.0000000000
     22619       183  PMPE      C21            -6.9369721104      -40.5302171865      -14.9037876244  MEMB      183             0.0000000000
     22620       183  PMPE      O22            -5.8594345838      -40.9943956643      -14.6399022895  MEMB      183             0.0000000000
     22621       183  PMPE      C22            -8.3686463945      -41.2266469389      -14.9889916943  MEMB      183             0.0000000000
     22622       183  PMPE      H2R            -8.4146769019      -41.8673219708      -15.8954891654  MEMB      183             0.0000000000
     22623       183  PMPE      H2S            -9.2152068709      -40.5071855670      -14.9833640868  MEMB      183             0.0000000000
     22624       183  PMPE      C3             -5.6668684282      -37.5753485378      -14.5152551683  MEMB      183             0.0000000000
     22625       183  PMPE      HX             -6.3879645122      -36.7380236982      -14.4002397261  MEMB      183             0.0000000000
     22626       183  PMPE      HY             -4.7190976287      -37.1207831558      -14.8750080895  MEMB      183             0.0000000000
     22627       183  PMPE      O31            -5.5244847408      -38.3119897278      -13.3448911640  MEMB      183             0.0000000000
     22628       183  PMPE      C31            -4.3557315199      -38.8431676624      -13.1512339420  MEMB      183             0.0000000000
     22629       183  PMPE      O32            -3.3529203616      -38.8597435453      -13.8641257516  MEMB      183             0.0000000000
     22630       183  PMPE      C32            -4.3083349259      -39.4204420569      -11.7996486823  MEMB      183             0.0000000000
     22631       183  PMPE      H2X            -5.1472647354      -40.1392017031      -11.6817399594  MEMB      183             0.0000000000
     22632       183  PMPE      H2Y            -4.5282692099      -38.5255080721      -11.1791300465  MEMB      183             0.0000000000
     22633       183  PMPE      C23            -8.6978808415      -42.0283239936      -13.6599330987  MEMB      183             0.0000000000
     22634       183  PMPE      H3R            -7.8720880753      -42.7286802557      -13.4111586605  MEMB      183             0.0000000000
     22635       183  PMPE      H3S            -9.5232977222      -42.7175826730      -13.9390928920  MEMB      183             0.0000000000
     22636       183  PMPE      C24            -9.1832744521      -41.3011525740      -12.3950074745  MEMB      183             0.0000000000
     22637       183  PMPE      H4R            -9.2736398398      -42.1425390239      -11.6751296542  MEMB      183             0.0000000000
     22638       183  PMPE      H4S           -10.1231366810      -40.7275090732      -12.5430381059  MEMB      183             0.0000000000
     22639       183  PMPE      C25            -8.1887935664      -40.3225505398      -11.7040626467  MEMB      183             0.0000000000
     22640       183  PMPE      H5R            -7.6582781503      -39.6453413054      -12.4071006166  MEMB      183             0.0000000000
     22641       183  PMPE      H5S            -7.3141275671      -40.8473780412      -11.2637939639  MEMB      183             0.0000000000
     22642       183  PMPE      C26            -8.8201146637      -39.6024631228      -10.5184878318  MEMB      183             0.0000000000
     22643       183  PMPE      H6R            -9.3483175978      -40.4893056124      -10.1075946105  MEMB      183             0.0000000000
     22644       183  PMPE      H6S            -9.5560868889      -38.8184971929      -10.7978853176  MEMB      183             0.0000000000
     22645       183  PMPE      C27            -7.9068577531      -39.1083925490       -9.3703678330  MEMB      183             0.0000000000
     22646       183  PMPE      H7R            -7.4100273751      -38.1826744891       -9.7316527056  MEMB      183             0.0000000000
     22647       183  PMPE      H7S            -7.1456244609      -39.8950698188       -9.1806742546  MEMB      183             0.0000000000
     22648       183  PMPE      C28            -8.6851978476      -38.7871123309       -8.1259754112  MEMB      183             0.0000000000
     22649       183  PMPE      H8R            -9.5716885834      -38.1265648651       -8.2361227120  MEMB      183             0.0000000000
     22650       183  PMPE      H8S            -7.9633929604      -38.1427949684       -7.5799222831  MEMB      183             0.0000000000
     22651       183  PMPE      C29            -9.0667715885      -40.1282589619       -7.3183218907  MEMB      183             0.0000000000
     22652       183  PMPE      H9R            -8.2580373275      -40.8896091088       -7.2935063855  MEMB      183             0.0000000000
     22653       183  PMPE      C217          -10.4239380956      -40.6760350507       -7.6173099339  MEMB      183             0.0000000000
     22654       183  PMPE      H17R          -10.4398190545      -41.7576627536       -7.5651722191  MEMB      183             0.0000000000
     22655       183  PMPE      H17S          -11.0163787185      -40.0502336063       -8.2732636440  MEMB      183             0.0000000000
     22656       183  PMPE      C210          -10.0406486498      -40.1755486058       -6.2427797804  MEMB      183             0.0000000000
     22657       183  PMPE      H10R           -9.8089095388      -40.8873980223       -5.4218735053  MEMB      183             0.0000000000
     22658       183  PMPE      C211          -10.8781373800      -38.8403456303       -5.8565531035  MEMB      183             0.0000000000
     22659       183  PMPE      H11R          -11.7513076499      -39.1485721680       -5.2426383082  MEMB      183             0.0000000000
     22660       183  PMPE      H11S          -11.1081488604      -38.2443158230       -6.7654891974  MEMB      183             0.0000000000
     22661       183  PMPE      C212          -10.0030745122      -37.9253361375       -5.0077631011  MEMB      183             0.0000000000
     22662       183  PMPE      H12R           -8.9070063560      -38.0215838621       -5.1616851202  MEMB      183             0.0000000000
     22663       183  PMPE      H12S          -10.2056803174      -38.2953984539       -3.9799865009  MEMB      183             0.0000000000
     22664       183  PMPE      C213          -10.4971922171      -36.4350749378       -5.0232385669  MEMB      183             0.0000000000
     22665       183  PMPE      H13R          -11.6081845647      -36.4313936507       -5.0215006986  MEMB      183             0.0000000000
     22666       183  PMPE      H13S          -10.1993422871      -35.9589067867       -5.9818159466  MEMB      183             0.0000000000
     22667       183  PMPE      C214          -10.1014409411      -35.5713376279       -3.8786243258  MEMB      183             0.0000000000
     22668       183  PMPE      H14R          -10.4991224882      -36.1038142801       -2.9883213744  MEMB      183             0.0000000000
     22669       183  PMPE      H14S          -10.4678150659      -34.5228622689       -3.9067307605  MEMB      183             0.0000000000
     22670       183  PMPE      C215           -8.5656604149      -35.4430459645       -3.6143500216  MEMB      183             0.0000000000
     22671       183  PMPE      H15R           -7.9953957117      -35.4443336067       -4.5678272523  MEMB      183             0.0000000000
     22672       183  PMPE      H15S           -8.2059975031      -36.4461331794       -3.3000581795  MEMB      183             0.0000000000
     22673       183  PMPE      C216           -8.0925262679      -34.3610385818       -2.6291722119  MEMB      183             0.0000000000
     22674       183  PMPE      H16R           -6.9986556153      -34.3599415026       -2.4348332671  MEMB      183             0.0000000000
     22675       183  PMPE      H16S           -8.2997649205      -33.3217729785       -2.9627885904  MEMB      183             0.0000000000
     22676       183  PMPE      H16T           -8.6125524733      -34.3992230067       -1.6481331869  MEMB      183             0.0000000000
     22677       183  PMPE      C33            -2.9360369002      -40.0062165612      -11.4161759613  MEMB      183             0.0000000000
     22678       183  PMPE      H3X            -2.2982655149      -39.0988458769      -11.3510053052  MEMB      183             0.0000000000
     22679       183  PMPE      H3Y            -2.5844026934      -40.6775092204      -12.2286047134  MEMB      183             0.0000000000
     22680       183  PMPE      C34            -2.9651733694      -40.9031505346      -10.2267712403  MEMB      183             0.0000000000
     22681       183  PMPE      H4X            -1.8619685331      -40.9446767556      -10.1021266958  MEMB      183             0.0000000000
     22682       183  PMPE      H4Y            -3.2669229436      -41.9220766012      -10.5508973250  MEMB      183             0.0000000000
     22683       183  PMPE      C35            -3.7787945595      -40.5400545447       -9.0131461782  MEMB      183             0.0000000000
     22684       183  PMPE      H5X            -3.6650234661      -41.3337403874       -8.2440947931  MEMB      183             0.0000000000
     22685       183  PMPE      H5Y            -4.8807615526      -40.4571645532       -9.1276847490  MEMB      183             0.0000000000
     22686       183  PMPE      C36            -3.1528877021      -39.4152976620       -8.2220192351  MEMB      183             0.0000000000
     22687       183  PMPE      H6X            -3.3196443901      -38.4489578086       -8.7442270131  MEMB      183             0.0000000000
     22688       183  PMPE      H6Y            -2.0509041923      -39.5432385405       -8.1621453180  MEMB      183             0.0000000000
     22689       183  PMPE      C37            -3.7379484502      -39.4014536686       -6.8029019378  MEMB      183             0.0000000000
     22690       183  PMPE      H7X            -3.1339882373      -38.7814705338       -6.1063577640  MEMB      183             0.0000000000
     22691       183  PMPE      H7Y            -3.6864138353      -40.4080687003       -6.3355783002  MEMB      183             0.0000000000
     22692       183  PMPE      C38            -5.1973484800      -39.0889682429       -6.8486113133  MEMB      183             0.0000000000
     22693       183  PMPE      H8X            -5.8302145053      -39.8467182296       -7.3581364026  MEMB      183             0.0000000000
     22694       183  PMPE      H8Y            -5.3651864046      -38.0933209115       -7.3121170937  MEMB      183             0.0000000000
     22695       183  PMPE      C39            -5.7498890562      -38.9801929768       -5.3537543419  MEMB      183             0.0000000000
     22696       183  PMPE      H9X            -6.7604595830      -38.5372597196       -5.4836710163  MEMB      183             0.0000000000
     22697       183  PMPE      H9Y            -4.9606054091      -38.3936223216       -4.8367561433  MEMB      183             0.0000000000
     22698       183  PMPE      C310           -5.8299828377      -40.3704637039       -4.5872375583  MEMB      183             0.0000000000
     22699       183  PMPE      H10X           -4.8704879428      -40.8583848489       -4.3122403528  MEMB      183             0.0000000000
     22700       183  PMPE      H10Y           -6.3969938089      -41.0507198951       -5.2581115923  MEMB      183             0.0000000000
     22701       183  PMPE      C311           -6.7071912201      -40.2769487596       -3.2796957895  MEMB      183             0.0000000000
     22702       183  PMPE      H11X           -7.7104198472      -39.8557999831       -3.5043887996  MEMB      183             0.0000000000
     22703       183  PMPE      H11Y           -6.1877576625      -39.5455502547       -2.6242819780  MEMB      183             0.0000000000
     22704       183  PMPE      C312           -7.0156289461      -41.5885368072       -2.5358403643  MEMB      183             0.0000000000
     22705       183  PMPE      H12X           -5.9964466170      -41.9055817717       -2.2275054197  MEMB      183             0.0000000000
     22706       183  PMPE      H12Y           -7.2643866121      -42.4305349099       -3.2166346089  MEMB      183             0.0000000000
     22707       183  PMPE      C313           -8.1357876647      -41.5986343036       -1.5231003407  MEMB      183             0.0000000000
     22708       183  PMPE      H13X           -8.2672208595      -42.6198336034       -1.1057287218  MEMB      183             0.0000000000
     22709       183  PMPE      H13Y           -9.0305373907      -41.4458840822       -2.1637331551  MEMB      183             0.0000000000
     22710       183  PMPE      C314           -7.9744122360      -40.5227697272       -0.3751979967  MEMB      183             0.0000000000
     22711       183  PMPE      H14X           -8.9437801730      -40.6156652227        0.1596075565  MEMB      183             0.0000000000
     22712       183  PMPE      H14Y           -7.9983095648      -39.5130145174       -0.8379567821  MEMB      183             0.0000000000
     22713       183  PMPE      C315           -6.7637075707      -40.5920805487        0.6087658098  MEMB      183             0.0000000000
     22714       183  PMPE      H15X           -5.7900119280      -40.3604680734        0.1264861512  MEMB      183             0.0000000000
     22715       183  PMPE      H15Y           -6.6971394552      -41.6290593899        1.0019140873  MEMB      183             0.0000000000
     22716       183  PMPE      C316           -6.8196576010      -39.6282247467        1.8120000281  MEMB      183             0.0000000000
     22717       183  PMPE      H16X           -5.8514123730      -39.8923301178        2.2885205233  MEMB      183             0.0000000000
     22718       183  PMPE      H16Y           -7.6628372415      -39.8985668772        2.4830335207  MEMB      183             0.0000000000
     22719       183  PMPE      H16Z           -6.7370769053      -38.5476959145        1.5671344847  MEMB      183             0.0000000000
     22720       184  QMPE      N             -34.7061393554      -16.6778959259      -17.7156552983  MEMB      184             0.0000000000
     22721       184  QMPE      HN1           -34.8497237887      -17.5960580711      -17.2487913612  MEMB      184             0.0000000000
     22722       184  QMPE      HN2           -33.7218762721      -16.3420054131      -17.7137817119  MEMB      184             0.0000000000
     22723       184  QMPE      HN3           -35.4200462373      -16.0466670856      -17.2991374660  MEMB      184             0.0000000000
     22724       184  QMPE      C12           -34.9434216308      -16.8724325400      -19.1588313739  MEMB      184             0.0000000000
     22725       184  QMPE      H12A          -34.0824905681      -17.4011079362      -19.6210225753  MEMB      184             0.0000000000
     22726       184  QMPE      H12B          -35.0202729286      -15.8604054848      -19.6107340685  MEMB      184             0.0000000000
     22727       184  QMPE      C11           -36.2739155977      -17.7400925280      -19.3122276502  MEMB      184             0.0000000000
     22728       184  QMPE      H11A          -36.1648816064      -18.7786704554      -18.9330329530  MEMB      184             0.0000000000
     22729       184  QMPE      H11B          -36.4480782704      -17.6628590988      -20.4067701865  MEMB      184             0.0000000000
     22730       184  QMPE      P             -38.3580245077      -16.1016358912      -19.2721310613  MEMB      184             0.0000000000
     22731       184  QMPE      O13           -39.5040808171      -16.9787838367      -19.6757864653  MEMB      184             0.0000000000
     22732       184  QMPE      O14           -37.6506920964      -15.2203855315      -20.2286329775  MEMB      184             0.0000000000
     22733       184  QMPE      O11           -38.7649274423      -15.2894360891      -18.0139855834  MEMB      184             0.0000000000
     22734       184  QMPE      O12           -37.3319657532      -17.0600496611      -18.6227495919  MEMB      184             0.0000000000
     22735       184  QMPE      C1            -37.7246677021      -14.5265930647      -17.4308596130  MEMB      184             0.0000000000
     22736       184  QMPE      HA            -37.7928488238      -13.4622208582      -17.7419609856  MEMB      184             0.0000000000
     22737       184  QMPE      HB            -36.6902530820      -14.8068584471      -17.7237052734  MEMB      184             0.0000000000
     22738       184  QMPE      C2            -37.9472957474      -14.4737152202      -15.9246411872  MEMB      184             0.0000000000
     22739       184  QMPE      HS            -37.3640606708      -13.6767353653      -15.4157394201  MEMB      184             0.0000000000
     22740       184  QMPE      O21           -37.5987967856      -15.6897094832      -15.4204731988  MEMB      184             0.0000000000
     22741       184  QMPE      C21           -36.4296740735      -15.8127673289      -14.7115424946  MEMB      184             0.0000000000
     22742       184  QMPE      O22           -35.7469463019      -14.9165218749      -14.3674732056  MEMB      184             0.0000000000
     22743       184  QMPE      C22           -36.2394350485      -17.3123503820      -14.4957101001  MEMB      184             0.0000000000
     22744       184  QMPE      H2R           -36.5980562073      -17.8991018889      -15.3683119032  MEMB      184             0.0000000000
     22745       184  QMPE      H2S           -36.8110435356      -17.5376172905      -13.5700536499  MEMB      184             0.0000000000
     22746       184  QMPE      C3            -39.4568401495      -14.1072799169      -15.5981652102  MEMB      184             0.0000000000
     22747       184  QMPE      HX            -40.1238810650      -14.9170457524      -15.9637560053  MEMB      184             0.0000000000
     22748       184  QMPE      HY            -39.8519279668      -13.3389710782      -16.2966838700  MEMB      184             0.0000000000
     22749       184  QMPE      O31           -39.6331079050      -13.8862666345      -14.1956943650  MEMB      184             0.0000000000
     22750       184  QMPE      C31           -39.8149696700      -14.9043206229      -13.4175339084  MEMB      184             0.0000000000
     22751       184  QMPE      O32           -40.1237397032      -15.9982780871      -13.7851255898  MEMB      184             0.0000000000
     22752       184  QMPE      C32           -39.4673134652      -14.5740253739      -11.9774754360  MEMB      184             0.0000000000
     22753       184  QMPE      H2X           -38.6938497986      -13.7815358361      -11.8878353397  MEMB      184             0.0000000000
     22754       184  QMPE      H2Y           -40.2967412736      -14.2598523379      -11.3083973118  MEMB      184             0.0000000000
     22755       184  QMPE      C23           -34.7298554695      -17.6135741006      -14.2908817292  MEMB      184             0.0000000000
     22756       184  QMPE      H3R           -34.1813353108      -17.1818368286      -15.1552021515  MEMB      184             0.0000000000
     22757       184  QMPE      H3S           -34.6362421984      -18.7138924736      -14.4127714233  MEMB      184             0.0000000000
     22758       184  QMPE      C24           -34.1763139636      -17.2173699887      -12.9064080124  MEMB      184             0.0000000000
     22759       184  QMPE      H4R           -34.8571038524      -16.4093174269      -12.5630461898  MEMB      184             0.0000000000
     22760       184  QMPE      H4S           -33.0718047393      -17.0976618134      -12.9134999893  MEMB      184             0.0000000000
     22761       184  QMPE      C25           -34.3900224099      -18.2911773488      -11.8515334849  MEMB      184             0.0000000000
     22762       184  QMPE      H5R           -33.9894021884      -19.2252465082      -12.3002416414  MEMB      184             0.0000000000
     22763       184  QMPE      H5S           -35.4737502730      -18.3864870732      -11.6262093639  MEMB      184             0.0000000000
     22764       184  QMPE      C26           -33.7755616797      -17.9660167573      -10.4623045268  MEMB      184             0.0000000000
     22765       184  QMPE      H6R           -32.6976101939      -17.7560281672      -10.6303711820  MEMB      184             0.0000000000
     22766       184  QMPE      H6S           -33.9953858404      -18.8355579174       -9.8066393261  MEMB      184             0.0000000000
     22767       184  QMPE      C27           -34.4178088927      -16.8810359285       -9.6021195481  MEMB      184             0.0000000000
     22768       184  QMPE      H7R           -35.5149722341      -17.0541296925       -9.6264511061  MEMB      184             0.0000000000
     22769       184  QMPE      H7S           -34.2489922395      -15.8643346033      -10.0170174316  MEMB      184             0.0000000000
     22770       184  QMPE      C28           -34.1284670441      -17.0340461904       -8.0702133787  MEMB      184             0.0000000000
     22771       184  QMPE      H8R           -33.1385117733      -16.5399750253       -7.9692021263  MEMB      184             0.0000000000
     22772       184  QMPE      H8S           -34.1180948684      -18.0905140144       -7.7265725010  MEMB      184             0.0000000000
     22773       184  QMPE      C29           -35.1530953464      -16.2653657556       -7.2463377879  MEMB      184             0.0000000000
     22774       184  QMPE      H9R           -36.1582261493      -16.7076605760       -7.4148853280  MEMB      184             0.0000000000
     22775       184  QMPE      C217          -35.0904650308      -14.7215903262       -7.1086400802  MEMB      184             0.0000000000
     22776       184  QMPE      H17R          -34.1854806999      -14.2481886002       -7.4688944345  MEMB      184             0.0000000000
     22777       184  QMPE      H17S          -36.0671775765      -14.2781159834       -7.2578110955  MEMB      184             0.0000000000
     22778       184  QMPE      C210          -34.9462191565      -15.6058588696       -5.8790554489  MEMB      184             0.0000000000
     22779       184  QMPE      H10R          -35.7999995562      -15.7546956486       -5.1839096757  MEMB      184             0.0000000000
     22780       184  QMPE      C211          -33.4902654119      -15.6187388458       -5.2997534339  MEMB      184             0.0000000000
     22781       184  QMPE      H11R          -32.7552405062      -15.6037361478       -6.1327204424  MEMB      184             0.0000000000
     22782       184  QMPE      H11S          -33.2105614873      -14.8548657718       -4.5430604361  MEMB      184             0.0000000000
     22783       184  QMPE      C212          -33.3088699773      -16.9879993556       -4.6127009895  MEMB      184             0.0000000000
     22784       184  QMPE      H12R          -33.7811102529      -17.6979912498       -5.3248960078  MEMB      184             0.0000000000
     22785       184  QMPE      H12S          -33.9542795879      -16.9198319237       -3.7109687335  MEMB      184             0.0000000000
     22786       184  QMPE      C213          -31.8532118084      -17.2699634243       -4.3949937348  MEMB      184             0.0000000000
     22787       184  QMPE      H13R          -31.3778877120      -17.2461856736       -5.3988979307  MEMB      184             0.0000000000
     22788       184  QMPE      H13S          -31.7721522315      -18.3399140917       -4.1069740275  MEMB      184             0.0000000000
     22789       184  QMPE      C214          -31.1398234346      -16.4996398538       -3.2389915495  MEMB      184             0.0000000000
     22790       184  QMPE      H14R          -31.8038301097      -16.5950779450       -2.3533804077  MEMB      184             0.0000000000
     22791       184  QMPE      H14S          -31.0449877549      -15.4747547268       -3.6572464856  MEMB      184             0.0000000000
     22792       184  QMPE      C215          -29.8422751793      -17.1079746133       -2.8266111631  MEMB      184             0.0000000000
     22793       184  QMPE      H15R          -29.0886325625      -17.1204118708       -3.6428146969  MEMB      184             0.0000000000
     22794       184  QMPE      H15S          -29.9664711578      -18.1822748699       -2.5720994423  MEMB      184             0.0000000000
     22795       184  QMPE      C216          -29.1277878083      -16.2997893455       -1.6624140875  MEMB      184             0.0000000000
     22796       184  QMPE      H16R          -29.7694548424      -16.1423263001       -0.7692231583  MEMB      184             0.0000000000
     22797       184  QMPE      H16S          -28.7740152867      -15.2993318699       -1.9914278295  MEMB      184             0.0000000000
     22798       184  QMPE      H16T          -28.2493568647      -16.8577603387       -1.2733787401  MEMB      184             0.0000000000
     22799       184  QMPE      C33           -39.0214716502      -15.8030950216      -11.1814747427  MEMB      184             0.0000000000
     22800       184  QMPE      H3X           -37.9982559520      -16.2012977717      -11.3511357766  MEMB      184             0.0000000000
     22801       184  QMPE      H3Y           -39.6967988181      -16.6482996373      -11.4342261687  MEMB      184             0.0000000000
     22802       184  QMPE      C34           -39.2223199367      -15.5954468277       -9.6472347108  MEMB      184             0.0000000000
     22803       184  QMPE      H4X           -40.2876520611      -15.3273351800       -9.4813893168  MEMB      184             0.0000000000
     22804       184  QMPE      H4Y           -38.4678364862      -14.8507431942       -9.3148309682  MEMB      184             0.0000000000
     22805       184  QMPE      C35           -39.1156288990      -16.8959919038       -8.7810229514  MEMB      184             0.0000000000
     22806       184  QMPE      H5X           -38.0786979693      -17.2941039440       -8.8055599064  MEMB      184             0.0000000000
     22807       184  QMPE      H5Y           -39.8470800345      -17.5910457143       -9.2459964103  MEMB      184             0.0000000000
     22808       184  QMPE      C36           -39.3134548520      -16.7333428929       -7.2738865354  MEMB      184             0.0000000000
     22809       184  QMPE      H6X           -40.3121939215      -16.2620481508       -7.1525510206  MEMB      184             0.0000000000
     22810       184  QMPE      H6Y           -38.5478602236      -16.0126816708       -6.9149536445  MEMB      184             0.0000000000
     22811       184  QMPE      C37           -39.3321126070      -18.0350907654       -6.4109133505  MEMB      184             0.0000000000
     22812       184  QMPE      H7X           -40.2055956641      -18.6981883112       -6.5888187400  MEMB      184             0.0000000000
     22813       184  QMPE      H7Y           -38.4447251457      -18.6432637787       -6.6883842330  MEMB      184             0.0000000000
     22814       184  QMPE      C38           -39.0857159643      -17.7484694165       -4.9053286695  MEMB      184             0.0000000000
     22815       184  QMPE      H8X           -38.2429747080      -17.0273176724       -4.9689513764  MEMB      184             0.0000000000
     22816       184  QMPE      H8Y           -40.0270759696      -17.2998473088       -4.5220527150  MEMB      184             0.0000000000
     22817       184  QMPE      C39           -38.7094468269      -18.9489315829       -4.0789030608  MEMB      184             0.0000000000
     22818       184  QMPE      H9X           -37.6935107637      -19.2843642372       -4.3783687077  MEMB      184             0.0000000000
     22819       184  QMPE      H9Y           -39.4072554871      -19.7932172010       -4.2648228046  MEMB      184             0.0000000000
     22820       184  QMPE      C310          -38.4529009017      -18.5666454723       -2.6019164366  MEMB      184             0.0000000000
     22821       184  QMPE      H10X          -39.3699307463      -18.0622813160       -2.2290973567  MEMB      184             0.0000000000
     22822       184  QMPE      H10Y          -37.6502618870      -17.7999398843       -2.6493965412  MEMB      184             0.0000000000
     22823       184  QMPE      C311          -38.0158274196      -19.7614035562       -1.7160916521  MEMB      184             0.0000000000
     22824       184  QMPE      H11X          -37.1051872763      -20.1943735794       -2.1825588494  MEMB      184             0.0000000000
     22825       184  QMPE      H11Y          -38.6751075873      -20.6451318448       -1.5793607746  MEMB      184             0.0000000000
     22826       184  QMPE      C312          -37.3931828298      -19.3416273733       -0.3570932840  MEMB      184             0.0000000000
     22827       184  QMPE      H12X          -36.4279909016      -18.8243494079       -0.5445748620  MEMB      184             0.0000000000
     22828       184  QMPE      H12Y          -37.0221779895      -20.2577798009        0.1501943651  MEMB      184             0.0000000000
     22829       184  QMPE      C313          -38.1963197442      -18.4400031139        0.5870858439  MEMB      184             0.0000000000
     22830       184  QMPE      H13X          -38.6135793095      -17.6151306174       -0.0291933495  MEMB      184             0.0000000000
     22831       184  QMPE      H13Y          -39.0586927388      -19.0607546365        0.9115875416  MEMB      184             0.0000000000
     22832       184  QMPE      C314          -37.4933492925      -18.2194672962        1.9033863931  MEMB      184             0.0000000000
     22833       184  QMPE      H14X          -37.4883458359      -19.1566668749        2.5000052361  MEMB      184             0.0000000000
     22834       184  QMPE      H14Y          -38.2497603042      -17.5995224968        2.4304840447  MEMB      184             0.0000000000
     22835       184  QMPE      C315          -36.1564107022      -17.5678550198        1.9093041211  MEMB      184             0.0000000000
     22836       184  QMPE      H15X          -35.3771984990      -18.2246911950        1.4669061562  MEMB      184             0.0000000000
     22837       184  QMPE      H15Y          -36.2860080484      -16.6191852466        1.3457867154  MEMB      184             0.0000000000
     22838       184  QMPE      H15Z          -35.7358435139      -17.2921424183        2.8999742680  MEMB      184             0.0000000000
     22839       185  PMPG      C13           -26.0859594183       31.1580004111      -18.8565856452  MEMB      185             0.0000000000
     22840       185  PMPG      H13A          -26.1795150478       30.5403141775      -17.9378734439  MEMB      185             0.0000000000
     22841       185  PMPG      H13B          -25.0047916853       31.3977189194      -18.9456478143  MEMB      185             0.0000000000
     22842       185  PMPG      OC3           -26.8113164707       32.3718261579      -18.7468611581  MEMB      185             0.0000000000
     22843       185  PMPG      HO3           -26.8693728993       32.3955746130      -17.7889125750  MEMB      185             0.0000000000
     22844       185  PMPG      C12           -26.4439660669       30.3219710184      -20.1193133128  MEMB      185             0.0000000000
     22845       185  PMPG      H12A          -25.9764273468       29.3176150530      -19.9949924374  MEMB      185             0.0000000000
     22846       185  PMPG      OC2           -25.8838900060       30.9275049320      -21.2853683610  MEMB      185             0.0000000000
     22847       185  PMPG      HO2           -26.2797245215       30.4055274016      -22.0171957547  MEMB      185             0.0000000000
     22848       185  PMPG      C11           -28.0324719780       30.1681924881      -20.2161334571  MEMB      185             0.0000000000
     22849       185  PMPG      H11A          -28.2806435268       29.3122170385      -20.8794870725  MEMB      185             0.0000000000
     22850       185  PMPG      H11B          -28.3560333858       31.0147641569      -20.8587418054  MEMB      185             0.0000000000
     22851       185  PMPG      P             -28.8678138785       28.6953872652      -18.2282789419  MEMB      185             0.0000000000
     22852       185  PMPG      O13           -28.0329897135       27.6135914764      -18.8023634649  MEMB      185             0.0000000000
     22853       185  PMPG      O14           -30.3311472773       28.5350809389      -18.0298400244  MEMB      185             0.0000000000
     22854       185  PMPG      O11           -28.2973408953       28.9695950031      -16.7400958998  MEMB      185             0.0000000000
     22855       185  PMPG      O12           -28.7662243016       30.0630423086      -18.9751597335  MEMB      185             0.0000000000
     22856       185  PMPG      C1            -28.6609013401       30.0530021048      -16.0202366567  MEMB      185             0.0000000000
     22857       185  PMPG      HA            -29.7596948197       30.2124243107      -15.9807602159  MEMB      185             0.0000000000
     22858       185  PMPG      HB            -28.2577468253       30.9676534341      -16.5052113569  MEMB      185             0.0000000000
     22859       185  PMPG      C2            -28.2077774502       29.9065292568      -14.5576663212  MEMB      185             0.0000000000
     22860       185  PMPG      HS            -28.0924859200       30.9480698852      -14.1885835250  MEMB      185             0.0000000000
     22861       185  PMPG      O21           -26.9574652744       29.1233317545      -14.4550127222  MEMB      185             0.0000000000
     22862       185  PMPG      C21           -25.8766319259       29.8838126715      -14.3507264144  MEMB      185             0.0000000000
     22863       185  PMPG      O22           -25.7474055996       30.9528561452      -14.8568082998  MEMB      185             0.0000000000
     22864       185  PMPG      C22           -24.7409918984       29.1444087912      -13.5098747033  MEMB      185             0.0000000000
     22865       185  PMPG      H2R           -23.9660426404       28.7570024343      -14.2053536783  MEMB      185             0.0000000000
     22866       185  PMPG      H2S           -25.1721313498       28.2436376992      -13.0229958676  MEMB      185             0.0000000000
     22867       185  PMPG      C3            -29.3014107125       29.1021187186      -13.7744469950  MEMB      185             0.0000000000
     22868       185  PMPG      HX            -29.4342032027       28.0497971016      -14.1050623762  MEMB      185             0.0000000000
     22869       185  PMPG      HY            -30.3656401109       29.4210769246      -13.7760848526  MEMB      185             0.0000000000
     22870       185  PMPG      O31           -28.8117392628       29.0308415396      -12.4291487311  MEMB      185             0.0000000000
     22871       185  PMPG      C31           -29.2577501383       29.9326587334      -11.4838551607  MEMB      185             0.0000000000
     22872       185  PMPG      O32           -30.1716114060       30.7239676477      -11.6075930558  MEMB      185             0.0000000000
     22873       185  PMPG      C32           -28.5796756300       29.7249640224      -10.2110016025  MEMB      185             0.0000000000
     22874       185  PMPG      H2X           -29.0097595571       30.4418869844       -9.4793118947  MEMB      185             0.0000000000
     22875       185  PMPG      H2Y           -27.5025432799       29.9003875943      -10.4191688757  MEMB      185             0.0000000000
     22876       185  PMPG      C23           -24.0333305889       30.1165210022      -12.5770150120  MEMB      185             0.0000000000
     22877       185  PMPG      H3R           -23.8050530430       31.0080933527      -13.1993567523  MEMB      185             0.0000000000
     22878       185  PMPG      H3S           -23.1031222563       29.6555348481      -12.1813824492  MEMB      185             0.0000000000
     22879       185  PMPG      C24           -24.8439294447       30.4414287603      -11.3292866092  MEMB      185             0.0000000000
     22880       185  PMPG      H4R           -24.7878122241       29.5018822576      -10.7390117681  MEMB      185             0.0000000000
     22881       185  PMPG      H4S           -25.8676322115       30.7715176863      -11.6074862119  MEMB      185             0.0000000000
     22882       185  PMPG      C25           -24.2895792942       31.6338501768      -10.4531757463  MEMB      185             0.0000000000
     22883       185  PMPG      H5R           -25.1631019631       32.1732432912      -10.0285179973  MEMB      185             0.0000000000
     22884       185  PMPG      H5S           -23.7724295325       32.2790243267      -11.1952185662  MEMB      185             0.0000000000
     22885       185  PMPG      C26           -23.2956034295       31.2724673275       -9.3839935513  MEMB      185             0.0000000000
     22886       185  PMPG      H6R           -22.6397241724       32.1298230363       -9.1211547487  MEMB      185             0.0000000000
     22887       185  PMPG      H6S           -22.5236428261       30.5388606558       -9.7005674809  MEMB      185             0.0000000000
     22888       185  PMPG      C27           -23.9464708145       30.6531127051       -8.0697718024  MEMB      185             0.0000000000
     22889       185  PMPG      H7R           -24.4301422221       29.6836354992       -8.3157326569  MEMB      185             0.0000000000
     22890       185  PMPG      H7S           -24.7277778682       31.3841385685       -7.7706369454  MEMB      185             0.0000000000
     22891       185  PMPG      C28           -22.9402184548       30.5554639907       -6.8743061571  MEMB      185             0.0000000000
     22892       185  PMPG      H8R           -22.8875739570       31.5850138378       -6.4600872999  MEMB      185             0.0000000000
     22893       185  PMPG      H8S           -21.9145059060       30.1964003303       -7.1051921759  MEMB      185             0.0000000000
     22894       185  PMPG      C29           -23.4205095223       29.6394487572       -5.7124081648  MEMB      185             0.0000000000
     22895       185  PMPG      H9R           -23.0805874513       28.5837343781       -5.7775326122  MEMB      185             0.0000000000
     22896       185  PMPG      C217          -23.2858998987       30.0733251986       -4.2935168469  MEMB      185             0.0000000000
     22897       185  PMPG      H17R          -22.9569485244       29.2954950256       -3.6155343475  MEMB      185             0.0000000000
     22898       185  PMPG      H17S          -22.8156669144       31.0459840608       -4.2179883617  MEMB      185             0.0000000000
     22899       185  PMPG      C210          -24.6797109007       29.9138403951       -5.0064913724  MEMB      185             0.0000000000
     22900       185  PMPG      H10R          -25.1984059738       29.0141920294       -4.6116382984  MEMB      185             0.0000000000
     22901       185  PMPG      C211          -25.2999108735       31.2749118856       -4.8351850328  MEMB      185             0.0000000000
     22902       185  PMPG      H11R          -24.6470583021       32.1567601266       -5.0096793370  MEMB      185             0.0000000000
     22903       185  PMPG      H11S          -26.0722833649       31.3418330956       -5.6309766072  MEMB      185             0.0000000000
     22904       185  PMPG      C212          -25.8513931068       31.5329291417       -3.4762076345  MEMB      185             0.0000000000
     22905       185  PMPG      H12R          -25.0735064169       31.4187405672       -2.6912389238  MEMB      185             0.0000000000
     22906       185  PMPG      H12S          -26.4391439151       30.6815738899       -3.0711588578  MEMB      185             0.0000000000
     22907       185  PMPG      C213          -26.5998009454       32.8221086394       -3.2879666010  MEMB      185             0.0000000000
     22908       185  PMPG      H13R          -25.9295975917       33.6913754372       -3.4597908368  MEMB      185             0.0000000000
     22909       185  PMPG      H13S          -26.9662644077       32.8451228051       -2.2393988270  MEMB      185             0.0000000000
     22910       185  PMPG      C214          -27.9582485982       32.9659028614       -4.1205361946  MEMB      185             0.0000000000
     22911       185  PMPG      H14R          -28.4966870049       31.9980667102       -4.2082745939  MEMB      185             0.0000000000
     22912       185  PMPG      H14S          -27.7525993462       33.3014288725       -5.1595033358  MEMB      185             0.0000000000
     22913       185  PMPG      C215          -28.8936111630       34.0192999203       -3.4889257070  MEMB      185             0.0000000000
     22914       185  PMPG      H15R          -29.7569082084       34.0009531297       -4.1879974539  MEMB      185             0.0000000000
     22915       185  PMPG      H15S          -28.4496671577       35.0377272831       -3.4825644325  MEMB      185             0.0000000000
     22916       185  PMPG      C216          -29.4794255612       33.6039219592       -2.1549182551  MEMB      185             0.0000000000
     22917       185  PMPG      H16R          -28.7095684171       33.7484721420       -1.3670441219  MEMB      185             0.0000000000
     22918       185  PMPG      H16S          -29.8382578381       32.5536390122       -2.1052582756  MEMB      185             0.0000000000
     22919       185  PMPG      H16T          -30.3432641304       34.2790403674       -1.9751425872  MEMB      185             0.0000000000
     22920       185  PMPG      C33           -28.9267161753       28.2911982390       -9.6571446609  MEMB      185             0.0000000000
     22921       185  PMPG      H3X           -29.9322261104       27.9060011965       -9.9308119283  MEMB      185             0.0000000000
     22922       185  PMPG      H3Y           -28.6957077027       28.4765235671       -8.5863451854  MEMB      185             0.0000000000
     22923       185  PMPG      C34           -27.8260382500       27.2879326296       -9.9755674765  MEMB      185             0.0000000000
     22924       185  PMPG      H4X           -26.8908991395       27.8726963137      -10.1093106458  MEMB      185             0.0000000000
     22925       185  PMPG      H4Y           -28.0113231174       26.9310500457      -11.0112434539  MEMB      185             0.0000000000
     22926       185  PMPG      C35           -27.7561818015       26.0363840926       -9.0222814317  MEMB      185             0.0000000000
     22927       185  PMPG      H5X           -27.1634366206       25.2399962862       -9.5210205513  MEMB      185             0.0000000000
     22928       185  PMPG      H5Y           -28.7983709349       25.8223097488       -8.7023828195  MEMB      185             0.0000000000
     22929       185  PMPG      C36           -26.9756466897       26.3075265093       -7.6935854900  MEMB      185             0.0000000000
     22930       185  PMPG      H6X           -27.6803100123       26.8566282509       -7.0330869417  MEMB      185             0.0000000000
     22931       185  PMPG      H6Y           -26.1537835571       27.0305355573       -7.8836373459  MEMB      185             0.0000000000
     22932       185  PMPG      C37           -26.5783988184       25.0579292043       -6.9092486600  MEMB      185             0.0000000000
     22933       185  PMPG      H7X           -25.5563241139       24.6785200151       -7.1231010406  MEMB      185             0.0000000000
     22934       185  PMPG      H7Y           -27.3187730672       24.3078416075       -7.2607252809  MEMB      185             0.0000000000
     22935       185  PMPG      C38           -26.6514587461       25.2318482810       -5.4385136007  MEMB      185             0.0000000000
     22936       185  PMPG      H8X           -26.9087972512       24.2603178597       -4.9649881134  MEMB      185             0.0000000000
     22937       185  PMPG      H8Y           -27.4563228460       25.9401028423       -5.1471543714  MEMB      185             0.0000000000
     22938       185  PMPG      C39           -25.3273599373       25.8518279594       -4.9246381914  MEMB      185             0.0000000000
     22939       185  PMPG      H9X           -24.8740424251       26.7055994498       -5.4722676549  MEMB      185             0.0000000000
     22940       185  PMPG      H9Y           -24.6004124839       25.0357797410       -5.1244732796  MEMB      185             0.0000000000
     22941       185  PMPG      C310          -25.3968858410       26.0584246879       -3.3977181395  MEMB      185             0.0000000000
     22942       185  PMPG      H10X          -25.5923774910       25.0951048955       -2.8799166520  MEMB      185             0.0000000000
     22943       185  PMPG      H10Y          -26.2114413129       26.7641205944       -3.1278784532  MEMB      185             0.0000000000
     22944       185  PMPG      C311          -24.1862659719       26.7100852305       -2.7477637338  MEMB      185             0.0000000000
     22945       185  PMPG      H11X          -23.9877057595       27.6248264641       -3.3462145298  MEMB      185             0.0000000000
     22946       185  PMPG      H11Y          -23.3868093805       25.9389673272       -2.7239397496  MEMB      185             0.0000000000
     22947       185  PMPG      C312          -24.4857301525       27.3356718806       -1.3508845120  MEMB      185             0.0000000000
     22948       185  PMPG      H12X          -23.4576371882       27.5469721903       -0.9866063738  MEMB      185             0.0000000000
     22949       185  PMPG      H12Y          -25.0082195703       26.5514158700       -0.7624384206  MEMB      185             0.0000000000
     22950       185  PMPG      C313          -25.4415964574       28.6401882845       -1.4158016705  MEMB      185             0.0000000000
     22951       185  PMPG      H13X          -26.4369772138       28.3032724554       -1.7763923211  MEMB      185             0.0000000000
     22952       185  PMPG      H13Y          -25.0561020543       29.2950699923       -2.2262615580  MEMB      185             0.0000000000
     22953       185  PMPG      C314          -25.4382785914       29.3001777058       -0.0110875241  MEMB      185             0.0000000000
     22954       185  PMPG      H14X          -24.4104292537       29.6799990440        0.1721686103  MEMB      185             0.0000000000
     22955       185  PMPG      H14Y          -25.6659378170       28.4914052747        0.7158100171  MEMB      185             0.0000000000
     22956       185  PMPG      C315          -26.3413813993       30.6237571789        0.0044185165  MEMB      185             0.0000000000
     22957       185  PMPG      H15X          -26.0230283707       31.4046591137       -0.7188822640  MEMB      185             0.0000000000
     22958       185  PMPG      H15Y          -26.2963561555       31.0207209658        1.0411028041  MEMB      185             0.0000000000
     22959       185  PMPG      C316          -27.7943811383       30.2681159703       -0.1763048422  MEMB      185             0.0000000000
     22960       185  PMPG      H16X          -28.3853602943       31.2074813240       -0.2278545308  MEMB      185             0.0000000000
     22961       185  PMPG      H16Y          -28.3435519259       29.8344171065        0.6866189430  MEMB      185             0.0000000000
     22962       185  PMPG      H16Z          -28.1348608587       29.7305431152       -1.0870251024  MEMB      185             0.0000000000
     22963       186  PMPE      N             -15.6709878894       40.7991784915      -20.8766353121  MEMB      186             0.0000000000
     22964       186  PMPE      HN1           -16.2854254716       41.5041868240      -21.3316405506  MEMB      186             0.0000000000
     22965       186  PMPE      HN2           -14.8229468643       40.5642608490      -21.4309278149  MEMB      186             0.0000000000
     22966       186  PMPE      HN3           -16.1995011440       39.9043817789      -20.9167932501  MEMB      186             0.0000000000
     22967       186  PMPE      C12           -15.2145208354       41.1309936229      -19.5225692180  MEMB      186             0.0000000000
     22968       186  PMPE      H12A          -16.0694037392       41.3209397402      -18.8388904388  MEMB      186             0.0000000000
     22969       186  PMPE      H12B          -14.6785243538       42.1021188379      -19.5853759545  MEMB      186             0.0000000000
     22970       186  PMPE      C11           -14.2065854231       40.1374034498      -18.8484508899  MEMB      186             0.0000000000
     22971       186  PMPE      H11A          -13.5984514337       40.7406081888      -18.1408930974  MEMB      186             0.0000000000
     22972       186  PMPE      H11B          -13.4862582453       39.6793675484      -19.5595436524  MEMB      186             0.0000000000
     22973       186  PMPE      P             -15.6679262896       37.9285625025      -18.6291189833  MEMB      186             0.0000000000
     22974       186  PMPE      O13           -14.7764320041       37.3066771665      -19.6405768161  MEMB      186             0.0000000000
     22975       186  PMPE      O14           -16.9363139492       38.4377881899      -19.0728985139  MEMB      186             0.0000000000
     22976       186  PMPE      O11           -15.8798550899       36.9351340112      -17.3920636821  MEMB      186             0.0000000000
     22977       186  PMPE      O12           -14.8224289207       39.1670281654      -18.0176865806  MEMB      186             0.0000000000
     22978       186  PMPE      C1            -14.7470484881       36.5140184891      -16.6978412569  MEMB      186             0.0000000000
     22979       186  PMPE      HA            -13.8267113627       36.5033856236      -17.3200852914  MEMB      186             0.0000000000
     22980       186  PMPE      HB            -14.8215444854       35.4598467587      -16.3550679418  MEMB      186             0.0000000000
     22981       186  PMPE      C2            -14.3507648272       37.4072696683      -15.4311512259  MEMB      186             0.0000000000
     22982       186  PMPE      HS            -14.5252962407       36.7404264827      -14.5598418756  MEMB      186             0.0000000000
     22983       186  PMPE      O21           -15.1743748443       38.6180127023      -15.4503949846  MEMB      186             0.0000000000
     22984       186  PMPE      C21           -16.4026387488       38.7820862846      -14.8945986663  MEMB      186             0.0000000000
     22985       186  PMPE      O22           -17.0046953383       37.8606815971      -14.3785872435  MEMB      186             0.0000000000
     22986       186  PMPE      C22           -16.9392748883       40.1628942270      -15.0935277096  MEMB      186             0.0000000000
     22987       186  PMPE      H2R           -17.8846033587       40.3462343449      -14.5393966902  MEMB      186             0.0000000000
     22988       186  PMPE      H2S           -17.1617875692       40.3224852541      -16.1702541212  MEMB      186             0.0000000000
     22989       186  PMPE      C3            -12.8344528316       37.7607070178      -15.3629202609  MEMB      186             0.0000000000
     22990       186  PMPE      HX            -12.5313526853       38.4442203871      -16.1846629256  MEMB      186             0.0000000000
     22991       186  PMPE      HY            -12.2076288329       36.8453641489      -15.4225874371  MEMB      186             0.0000000000
     22992       186  PMPE      O31           -12.5700169202       38.5643286763      -14.1422180506  MEMB      186             0.0000000000
     22993       186  PMPE      C31           -12.0878925045       37.7931216553      -13.1242176524  MEMB      186             0.0000000000
     22994       186  PMPE      O32           -11.8259588797       36.6238258169      -13.1408112382  MEMB      186             0.0000000000
     22995       186  PMPE      C32           -12.0615652358       38.6524733357      -11.8454991041  MEMB      186             0.0000000000
     22996       186  PMPE      H2X           -13.1144376973       38.9901538062      -11.7370897808  MEMB      186             0.0000000000
     22997       186  PMPE      H2Y           -11.3809667943       39.5108122377      -12.0308662038  MEMB      186             0.0000000000
     22998       186  PMPE      C23           -16.0011567148       41.3281753221      -14.7019199360  MEMB      186             0.0000000000
     22999       186  PMPE      H3R           -16.6137009691       42.2407700687      -14.8640361280  MEMB      186             0.0000000000
     23000       186  PMPE      H3S           -15.1796555200       41.2367560928      -15.4442805775  MEMB      186             0.0000000000
     23001       186  PMPE      C24           -15.2486267032       41.1865645622      -13.3294774379  MEMB      186             0.0000000000
     23002       186  PMPE      H4R           -14.3602723360       41.8458604059      -13.4318316303  MEMB      186             0.0000000000
     23003       186  PMPE      H4S           -14.8339219466       40.1911130022      -13.0622375111  MEMB      186             0.0000000000
     23004       186  PMPE      C25           -15.9667946663       41.6194702447      -11.9849956704  MEMB      186             0.0000000000
     23005       186  PMPE      H5R           -17.0679412170       41.6773486417      -12.1208165204  MEMB      186             0.0000000000
     23006       186  PMPE      H5S           -15.6188533866       42.6359546443      -11.7021222836  MEMB      186             0.0000000000
     23007       186  PMPE      C26           -15.5462602887       40.6616717971      -10.8620581697  MEMB      186             0.0000000000
     23008       186  PMPE      H6R           -14.4372266581       40.7259117405      -10.8466092836  MEMB      186             0.0000000000
     23009       186  PMPE      H6S           -16.0060196600       39.6946373675      -11.1583462477  MEMB      186             0.0000000000
     23010       186  PMPE      C27           -16.0853989589       41.1100163974       -9.4917695932  MEMB      186             0.0000000000
     23011       186  PMPE      H7R           -17.1870781072       41.2204100764       -9.3999141362  MEMB      186             0.0000000000
     23012       186  PMPE      H7S           -15.7180515433       42.1583612455       -9.5104728553  MEMB      186             0.0000000000
     23013       186  PMPE      C28           -15.6386790838       40.1840046959       -8.4411811390  MEMB      186             0.0000000000
     23014       186  PMPE      H8R           -15.6955389825       40.6367002518       -7.4281886000  MEMB      186             0.0000000000
     23015       186  PMPE      H8S           -14.5565845099       39.9858279212       -8.5964815676  MEMB      186             0.0000000000
     23016       186  PMPE      C29           -16.4727988061       38.8941285698       -8.5565244682  MEMB      186             0.0000000000
     23017       186  PMPE      H9R           -16.3232450429       38.2349329460       -9.4382363028  MEMB      186             0.0000000000
     23018       186  PMPE      C217          -17.9361818776       39.1868290767       -8.1912202129  MEMB      186             0.0000000000
     23019       186  PMPE      H17R          -18.6041482124       38.7304012542       -8.9112091440  MEMB      186             0.0000000000
     23020       186  PMPE      H17S          -18.1042387289       40.1693528776       -7.7677900752  MEMB      186             0.0000000000
     23021       186  PMPE      C210          -17.0693486381       38.1877610453       -7.3572750217  MEMB      186             0.0000000000
     23022       186  PMPE      H10R          -17.1937442339       37.0987752038       -7.5388145494  MEMB      186             0.0000000000
     23023       186  PMPE      C211          -16.5776263517       38.6299516136       -5.9820775356  MEMB      186             0.0000000000
     23024       186  PMPE      H11R          -17.0197689614       39.5221180666       -5.4892592175  MEMB      186             0.0000000000
     23025       186  PMPE      H11S          -15.4720928305       38.7314830416       -6.0245978830  MEMB      186             0.0000000000
     23026       186  PMPE      C212          -16.7455049897       37.5259323195       -4.8615885610  MEMB      186             0.0000000000
     23027       186  PMPE      H12R          -16.1126619152       36.6894354446       -5.2277903163  MEMB      186             0.0000000000
     23028       186  PMPE      H12S          -17.8530777822       37.4410414149       -4.8416627949  MEMB      186             0.0000000000
     23029       186  PMPE      C213          -16.2366355255       37.9076525455       -3.4512061278  MEMB      186             0.0000000000
     23030       186  PMPE      H13R          -15.8056118245       38.9292032419       -3.5217298311  MEMB      186             0.0000000000
     23031       186  PMPE      H13S          -15.5532108245       37.0881532892       -3.1418957510  MEMB      186             0.0000000000
     23032       186  PMPE      C214          -17.4424545005       38.0906668951       -2.4211793459  MEMB      186             0.0000000000
     23033       186  PMPE      H14R          -18.1308331711       37.2257681488       -2.5325614196  MEMB      186             0.0000000000
     23034       186  PMPE      H14S          -18.0539985360       38.9845612867       -2.6687430897  MEMB      186             0.0000000000
     23035       186  PMPE      C215          -17.2311545616       38.2980455620       -0.9817839993  MEMB      186             0.0000000000
     23036       186  PMPE      H15R          -16.5832765838       39.1863240760       -0.8219824221  MEMB      186             0.0000000000
     23037       186  PMPE      H15S          -16.7733566994       37.3752943217       -0.5655237467  MEMB      186             0.0000000000
     23038       186  PMPE      C216          -18.5367496222       38.4843154806       -0.2833598799  MEMB      186             0.0000000000
     23039       186  PMPE      H16R          -18.9312472814       39.5051032388       -0.4748920097  MEMB      186             0.0000000000
     23040       186  PMPE      H16S          -19.2481306686       37.6546310418       -0.4830629247  MEMB      186             0.0000000000
     23041       186  PMPE      H16T          -18.4356133497       38.3978624979        0.8196444703  MEMB      186             0.0000000000
     23042       186  PMPE      C33           -11.4747570418       37.7877727033      -10.6927529878  MEMB      186             0.0000000000
     23043       186  PMPE      H3X           -10.3810036335       37.9374922385      -10.5678208800  MEMB      186             0.0000000000
     23044       186  PMPE      H3Y           -11.7574821511       36.7232609648      -10.8383629351  MEMB      186             0.0000000000
     23045       186  PMPE      C34           -12.1023736581       37.8970227540       -9.2455364301  MEMB      186             0.0000000000
     23046       186  PMPE      H4X           -12.0281273287       36.9433060770       -8.6805292764  MEMB      186             0.0000000000
     23047       186  PMPE      H4Y           -13.1778992717       38.0808404282       -9.4547645717  MEMB      186             0.0000000000
     23048       186  PMPE      C35           -11.6603026565       39.1861606653       -8.4425458769  MEMB      186             0.0000000000
     23049       186  PMPE      H5X           -12.0514317819       40.1628572823       -8.7994814993  MEMB      186             0.0000000000
     23050       186  PMPE      H5Y           -10.5562623408       39.1877232190       -8.3183946777  MEMB      186             0.0000000000
     23051       186  PMPE      C36           -12.2398003984       39.0019264424       -7.0491713027  MEMB      186             0.0000000000
     23052       186  PMPE      H6X           -11.9278734160       37.9907195749       -6.7108173503  MEMB      186             0.0000000000
     23053       186  PMPE      H6Y           -13.3507689100       38.9937921043       -7.0511033344  MEMB      186             0.0000000000
     23054       186  PMPE      C37           -11.8662845026       40.2246459429       -6.1131257033  MEMB      186             0.0000000000
     23055       186  PMPE      H7X           -12.2163113112       41.1302975617       -6.6531234398  MEMB      186             0.0000000000
     23056       186  PMPE      H7Y           -10.7697406716       40.4002054514       -6.0800916916  MEMB      186             0.0000000000
     23057       186  PMPE      C38           -12.5118548472       40.2196762917       -4.7381349758  MEMB      186             0.0000000000
     23058       186  PMPE      H8X           -12.6477358762       39.1738525206       -4.3886922139  MEMB      186             0.0000000000
     23059       186  PMPE      H8Y           -13.5668304424       40.5367984895       -4.8822917855  MEMB      186             0.0000000000
     23060       186  PMPE      C39           -11.7487148553       40.9967588488       -3.6868853068  MEMB      186             0.0000000000
     23061       186  PMPE      H9X           -11.6127644184       42.0448344072       -4.0294868880  MEMB      186             0.0000000000
     23062       186  PMPE      H9Y           -10.7800356872       40.5084692788       -3.4469790625  MEMB      186             0.0000000000
     23063       186  PMPE      C310          -12.5215696245       41.1949051454       -2.3629567362  MEMB      186             0.0000000000
     23064       186  PMPE      H10X          -11.8331558570       41.5813853938       -1.5812662374  MEMB      186             0.0000000000
     23065       186  PMPE      H10Y          -12.8766064414       40.2307785394       -1.9401922638  MEMB      186             0.0000000000
     23066       186  PMPE      C311          -13.7060525907       42.1247737510       -2.5261636279  MEMB      186             0.0000000000
     23067       186  PMPE      H11X          -14.3256331091       41.7583596147       -3.3724386599  MEMB      186             0.0000000000
     23068       186  PMPE      H11Y          -13.2611522874       43.1234510140       -2.7237195814  MEMB      186             0.0000000000
     23069       186  PMPE      C312          -14.7317858353       42.3168900181       -1.3421709461  MEMB      186             0.0000000000
     23070       186  PMPE      H12X          -15.1507104398       41.3292422066       -1.0534256951  MEMB      186             0.0000000000
     23071       186  PMPE      H12Y          -15.5917594422       42.9555944765       -1.6368277734  MEMB      186             0.0000000000
     23072       186  PMPE      C313          -14.0244285512       42.8420763683       -0.1119511766  MEMB      186             0.0000000000
     23073       186  PMPE      H13X          -13.4365211640       43.6974712771       -0.5081655123  MEMB      186             0.0000000000
     23074       186  PMPE      H13Y          -13.2438677667       42.1903744672        0.3356314456  MEMB      186             0.0000000000
     23075       186  PMPE      C314          -14.8832289604       43.4585647928        0.9374199134  MEMB      186             0.0000000000
     23076       186  PMPE      H14X          -15.3624727916       44.3406462853        0.4614176089  MEMB      186             0.0000000000
     23077       186  PMPE      H14Y          -14.2501435622       43.7402629383        1.8058492658  MEMB      186             0.0000000000
     23078       186  PMPE      C315          -15.9372445059       42.4165329190        1.3307126521  MEMB      186             0.0000000000
     23079       186  PMPE      H15X          -16.6884535818       42.1863176467        0.5452147392  MEMB      186             0.0000000000
     23080       186  PMPE      H15Y          -16.5166150635       42.9235966258        2.1316741500  MEMB      186             0.0000000000
     23081       186  PMPE      C316          -15.4166051797       41.0029207781        1.8654314425  MEMB      186             0.0000000000
     23082       186  PMPE      H16X          -14.9479952906       40.3677978545        1.0835466941  MEMB      186             0.0000000000
     23083       186  PMPE      H16Y          -16.3098486439       40.4028207572        2.1416875645  MEMB      186             0.0000000000
     23084       186  PMPE      H16Z          -14.9683421718       41.0293577602        2.8816420223  MEMB      186             0.0000000000
     23085       187  POPE      N              26.5399801459      -31.0510162602      -21.6120941375  MEMB      187             0.0000000000
     23086       187  POPE      HN1            27.3449246031      -30.4429744012      -21.3592112466  MEMB      187             0.0000000000
     23087       187  POPE      HN2            26.5238557826      -31.1793499041      -22.6440194483  MEMB      187             0.0000000000
     23088       187  POPE      HN3            25.6082400492      -30.6762569339      -21.3418801138  MEMB      187             0.0000000000
     23089       187  POPE      C12            26.7875755791      -32.3036538981      -20.7861872562  MEMB      187             0.0000000000
     23090       187  POPE      H12A           27.5574277321      -32.9633412316      -21.2405672704  MEMB      187             0.0000000000
     23091       187  POPE      H12B           25.8586759004      -32.9130595528      -20.7766387076  MEMB      187             0.0000000000
     23092       187  POPE      C11            27.2200832450      -31.9683494241      -19.3075716302  MEMB      187             0.0000000000
     23093       187  POPE      H11A           26.3466126827      -31.5979763731      -18.7294765725  MEMB      187             0.0000000000
     23094       187  POPE      H11B           27.9281660876      -31.1155045176      -19.2327709131  MEMB      187             0.0000000000
     23095       187  POPE      P              26.8737458854      -34.1927039048      -18.0665035474  MEMB      187             0.0000000000
     23096       187  POPE      O13            27.5242997491      -35.4547958250      -18.6337548736  MEMB      187             0.0000000000
     23097       187  POPE      O14            25.4569433619      -33.8698948676      -18.4190871999  MEMB      187             0.0000000000
     23098       187  POPE      O11            27.1639833127      -34.0440602119      -16.5223283457  MEMB      187             0.0000000000
     23099       187  POPE      O12            27.8250903248      -33.0768408212      -18.6524730067  MEMB      187             0.0000000000
     23100       187  POPE      C1             28.4784502122      -33.6458548897      -16.1113378741  MEMB      187             0.0000000000
     23101       187  POPE      HA             28.8459825344      -32.7568085772      -16.6670694577  MEMB      187             0.0000000000
     23102       187  POPE      HB             29.2480184455      -34.4014600683      -16.3780709886  MEMB      187             0.0000000000
     23103       187  POPE      C2             28.5068725872      -33.2884485773      -14.6237751426  MEMB      187             0.0000000000
     23104       187  POPE      HS             29.5455798788      -32.9696337969      -14.3919018079  MEMB      187             0.0000000000
     23105       187  POPE      O21            28.2766833306      -34.4654111398      -13.8191194307  MEMB      187             0.0000000000
     23106       187  POPE      C21            29.1131513149      -35.4140871647      -13.7642726365  MEMB      187             0.0000000000
     23107       187  POPE      O22            30.2505293463      -35.4253200338      -14.1564377564  MEMB      187             0.0000000000
     23108       187  POPE      C22            28.6446463643      -36.6095541752      -12.9510418843  MEMB      187             0.0000000000
     23109       187  POPE      H2R            28.6996370422      -37.5342854139      -13.5643682149  MEMB      187             0.0000000000
     23110       187  POPE      H2S            27.5621350473      -36.4648221784      -12.7472211643  MEMB      187             0.0000000000
     23111       187  POPE      C3             27.4791641048      -32.1729534510      -14.2707516502  MEMB      187             0.0000000000
     23112       187  POPE      HX             26.5358438649      -32.5120957219      -14.7497614626  MEMB      187             0.0000000000
     23113       187  POPE      HY             27.8165543271      -31.1784610827      -14.6333451234  MEMB      187             0.0000000000
     23114       187  POPE      O31            27.3529855442      -32.1804430249      -12.8349906236  MEMB      187             0.0000000000
     23115       187  POPE      C31            26.5565432569      -31.2122947553      -12.4208393661  MEMB      187             0.0000000000
     23116       187  POPE      O32            26.1299035924      -30.3306607483      -13.1492380665  MEMB      187             0.0000000000
     23117       187  POPE      C32            26.1116530946      -31.4833754454      -10.9250841024  MEMB      187             0.0000000000
     23118       187  POPE      H2X            25.3528725792      -30.7259853057      -10.6336506588  MEMB      187             0.0000000000
     23119       187  POPE      H2Y            26.9854705224      -31.2263672404      -10.2889157212  MEMB      187             0.0000000000
     23120       187  POPE      C23            29.4800665091      -36.6718428078      -11.6658589272  MEMB      187             0.0000000000
     23121       187  POPE      H3R            30.5698742977      -36.6973260047      -11.8803130856  MEMB      187             0.0000000000
     23122       187  POPE      H3S            29.1837355792      -37.5761205001      -11.0924568575  MEMB      187             0.0000000000
     23123       187  POPE      C24            29.0779002864      -35.5618865243      -10.6176887041  MEMB      187             0.0000000000
     23124       187  POPE      H4R            28.1425355439      -36.0036528068      -10.2124031824  MEMB      187             0.0000000000
     23125       187  POPE      H4S            28.9559174097      -34.5216567979      -10.9883148187  MEMB      187             0.0000000000
     23126       187  POPE      C25            29.9875916355      -35.5512071036       -9.3792831545  MEMB      187             0.0000000000
     23127       187  POPE      H5R            31.0459575378      -35.4210069065       -9.6911016986  MEMB      187             0.0000000000
     23128       187  POPE      H5S            29.9149537297      -36.4907457834       -8.7908009526  MEMB      187             0.0000000000
     23129       187  POPE      C26            29.6079654453      -34.2745541271       -8.5769217148  MEMB      187             0.0000000000
     23130       187  POPE      H6R            28.5465264126      -34.3942982076       -8.2714228443  MEMB      187             0.0000000000
     23131       187  POPE      H6S            29.7177332753      -33.3755522882       -9.2204019521  MEMB      187             0.0000000000
     23132       187  POPE      C27            30.3599833215      -34.0726301771       -7.2703300718  MEMB      187             0.0000000000
     23133       187  POPE      H7R            31.4231572967      -34.0147005705       -7.5875461584  MEMB      187             0.0000000000
     23134       187  POPE      H7S            30.1891414867      -34.9622077989       -6.6270676336  MEMB      187             0.0000000000
     23135       187  POPE      C28            30.1748579986      -32.6575166252       -6.5758350783  MEMB      187             0.0000000000
     23136       187  POPE      H8R            30.1840230522      -31.9562426252       -7.4374907887  MEMB      187             0.0000000000
     23137       187  POPE      H8S            31.1719602842      -32.4775073096       -6.1200892501  MEMB      187             0.0000000000
     23138       187  POPE      C29            28.9532949484      -32.4780878145       -5.6673628537  MEMB      187             0.0000000000
     23139       187  POPE      H91            28.0079469227      -32.7962799075       -6.1311198305  MEMB      187             0.0000000000
     23140       187  POPE      C210           28.8445738292      -31.8954614063       -4.4583253995  MEMB      187             0.0000000000
     23141       187  POPE      H101           27.8903027558      -31.9904427077       -3.9194889918  MEMB      187             0.0000000000
     23142       187  POPE      C211           30.0318316062      -31.3009270517       -3.7671574982  MEMB      187             0.0000000000
     23143       187  POPE      H11R           29.6576758579      -30.3744264643       -3.2814364595  MEMB      187             0.0000000000
     23144       187  POPE      H11S           30.7832219603      -30.9743900902       -4.5175621728  MEMB      187             0.0000000000
     23145       187  POPE      C212           30.7509522423      -32.2919476341       -2.7774549287  MEMB      187             0.0000000000
     23146       187  POPE      H12R           31.7072175216      -31.7988630025       -2.5004255317  MEMB      187             0.0000000000
     23147       187  POPE      H12S           31.1025617407      -33.1461746348       -3.3946976801  MEMB      187             0.0000000000
     23148       187  POPE      C213           29.9283498023      -32.8146581692       -1.6009546044  MEMB      187             0.0000000000
     23149       187  POPE      H13R           30.4737321177      -33.4749518313       -0.8932185350  MEMB      187             0.0000000000
     23150       187  POPE      H13S           29.1603792338      -33.4782047813       -2.0528927663  MEMB      187             0.0000000000
     23151       187  POPE      C214           29.0859873932      -31.8655417350       -0.8122058230  MEMB      187             0.0000000000
     23152       187  POPE      H14R           28.4426279872      -31.3590586551       -1.5631296774  MEMB      187             0.0000000000
     23153       187  POPE      H14S           29.8257161588      -31.1448979196       -0.4025784379  MEMB      187             0.0000000000
     23154       187  POPE      C215           28.3150603845      -32.4392406187        0.4077679233  MEMB      187             0.0000000000
     23155       187  POPE      H15R           27.7221484671      -31.6276806245        0.8812091447  MEMB      187             0.0000000000
     23156       187  POPE      H15S           29.0558661386      -32.8031366624        1.1514805892  MEMB      187             0.0000000000
     23157       187  POPE      C216           27.2678893417      -33.5442177081        0.1635720702  MEMB      187             0.0000000000
     23158       187  POPE      H16R           26.9303636526      -33.8628365924        1.1729675254  MEMB      187             0.0000000000
     23159       187  POPE      H16S           27.7259259584      -34.4380944972       -0.3113041066  MEMB      187             0.0000000000
     23160       187  POPE      C217           26.2320103717      -33.1498598419       -0.8332773168  MEMB      187             0.0000000000
     23161       187  POPE      H17R           26.6203894220      -32.8527619904       -1.8308831263  MEMB      187             0.0000000000
     23162       187  POPE      H17S           25.7863997806      -32.2243440429       -0.4099903895  MEMB      187             0.0000000000
     23163       187  POPE      C218           25.1808641518      -34.2607828852       -0.9737777667  MEMB      187             0.0000000000
     23164       187  POPE      H18R           25.5639432407      -35.1995323093       -1.4280034807  MEMB      187             0.0000000000
     23165       187  POPE      H18S           24.4877827366      -34.0046858784       -1.8034608419  MEMB      187             0.0000000000
     23166       187  POPE      H18T           24.6774226157      -34.3479257146        0.0127675942  MEMB      187             0.0000000000
     23167       187  POPE      C33            25.5567556589      -32.9045787187      -10.8861470054  MEMB      187             0.0000000000
     23168       187  POPE      H3X            25.3531535980      -33.2773380418       -9.8595420050  MEMB      187             0.0000000000
     23169       187  POPE      H3Y            26.2094631140      -33.7039445008      -11.2976176008  MEMB      187             0.0000000000
     23170       187  POPE      C34            24.2881594153      -32.9888730019      -11.6761529103  MEMB      187             0.0000000000
     23171       187  POPE      H4X            24.4672981881      -32.7515561721      -12.7466250385  MEMB      187             0.0000000000
     23172       187  POPE      H4Y            23.5959111884      -32.1775788039      -11.3648415935  MEMB      187             0.0000000000
     23173       187  POPE      C35            23.5140622702      -34.3327955432      -11.5630098399  MEMB      187             0.0000000000
     23174       187  POPE      H5X            22.5265106549      -34.0728951727      -12.0006339041  MEMB      187             0.0000000000
     23175       187  POPE      H5Y            23.3059237367      -34.6097923039      -10.5074191989  MEMB      187             0.0000000000
     23176       187  POPE      C36            24.1394007402      -35.4341265150      -12.3887650025  MEMB      187             0.0000000000
     23177       187  POPE      H6X            25.2494214830      -35.4020881347      -12.4226563992  MEMB      187             0.0000000000
     23178       187  POPE      H6Y            23.8543727147      -35.3814842010      -13.4612893860  MEMB      187             0.0000000000
     23179       187  POPE      C37            23.7555418284      -36.8740683103      -11.9795273456  MEMB      187             0.0000000000
     23180       187  POPE      H7X            24.2709479365      -37.5193648841      -12.7226758554  MEMB      187             0.0000000000
     23181       187  POPE      H7Y            22.6872577407      -37.0733470098      -12.2105632730  MEMB      187             0.0000000000
     23182       187  POPE      C38            24.0941615251      -37.2383510543      -10.5572035394  MEMB      187             0.0000000000
     23183       187  POPE      H8X            23.8913868407      -38.3092394738      -10.3417949238  MEMB      187             0.0000000000
     23184       187  POPE      H8Y            23.4090023549      -36.7826090877       -9.8107608013  MEMB      187             0.0000000000
     23185       187  POPE      C39            25.4905836578      -36.9399750455      -10.1245705737  MEMB      187             0.0000000000
     23186       187  POPE      H9X            25.8905896699      -35.9101734717      -10.2421508505  MEMB      187             0.0000000000
     23187       187  POPE      H9Y            26.2671591125      -37.6018806280      -10.5640393976  MEMB      187             0.0000000000
     23188       187  POPE      C310           25.5648625537      -37.3193170830       -8.5991957984  MEMB      187             0.0000000000
     23189       187  POPE      H10X           25.0675160292      -38.3078744135       -8.5005965636  MEMB      187             0.0000000000
     23190       187  POPE      H10Y           24.9688842785      -36.5887168965       -8.0115276573  MEMB      187             0.0000000000
     23191       187  POPE      C311           26.8793757925      -37.6871322362       -7.9408742739  MEMB      187             0.0000000000
     23192       187  POPE      H11X           27.6801814333      -37.2737792678       -8.5906208592  MEMB      187             0.0000000000
     23193       187  POPE      H11Y           27.0580293824      -38.7835495522       -7.9573957281  MEMB      187             0.0000000000
     23194       187  POPE      C312           26.9974981370      -37.1102214174       -6.4907871724  MEMB      187             0.0000000000
     23195       187  POPE      H12X           26.0397835673      -37.2581674484       -5.9474493333  MEMB      187             0.0000000000
     23196       187  POPE      H12Y           27.2400082645      -36.0262282580       -6.4691406691  MEMB      187             0.0000000000
     23197       187  POPE      C313           28.0828385470      -37.9674906912       -5.6650181209  MEMB      187             0.0000000000
     23198       187  POPE      H13X           29.0128580027      -37.8507654479       -6.2614745053  MEMB      187             0.0000000000
     23199       187  POPE      H13Y           27.7499857701      -39.0242495505       -5.5826123245  MEMB      187             0.0000000000
     23200       187  POPE      C314           28.1956564149      -37.5609558770       -4.1981498678  MEMB      187             0.0000000000
     23201       187  POPE      H14X           27.2485927810      -37.5815396668       -3.6176613153  MEMB      187             0.0000000000
     23202       187  POPE      H14Y           28.4060096374      -36.4738032500       -4.2885476775  MEMB      187             0.0000000000
     23203       187  POPE      C315           29.1762664041      -38.4355906556       -3.4198763305  MEMB      187             0.0000000000
     23204       187  POPE      H15X           30.2263518377      -38.4705511744       -3.7810120443  MEMB      187             0.0000000000
     23205       187  POPE      H15Y           28.7647925314      -39.4674873410       -3.4339964277  MEMB      187             0.0000000000
     23206       187  POPE      C316           29.3199851810      -37.9571031382       -2.0252894981  MEMB      187             0.0000000000
     23207       187  POPE      H16X           29.8551205624      -38.7289255980       -1.4317924358  MEMB      187             0.0000000000
     23208       187  POPE      H16Y           28.2900692077      -37.8273094288       -1.6293763903  MEMB      187             0.0000000000
     23209       187  POPE      H16Z           29.7025784275      -36.9236156682       -1.8844096937  MEMB      187             0.0000000000
     23210       188  PMPE      N             -37.7835804203       20.9512602832      -20.9066197702  MEMB      188             0.0000000000
     23211       188  PMPE      HN1           -37.3524671798       20.0779271263      -20.5418862093  MEMB      188             0.0000000000
     23212       188  PMPE      HN2           -38.0821718018       20.7666224104      -21.8855744278  MEMB      188             0.0000000000
     23213       188  PMPE      HN3           -37.1407760904       21.7620801540      -20.8018640461  MEMB      188             0.0000000000
     23214       188  PMPE      C12           -38.9996959717       21.2534811456      -20.0325895583  MEMB      188             0.0000000000
     23215       188  PMPE      H12A          -39.3294080918       22.2724891308      -20.3279429747  MEMB      188             0.0000000000
     23216       188  PMPE      H12B          -38.6586847222       21.3805919070      -18.9828871345  MEMB      188             0.0000000000
     23217       188  PMPE      C11           -40.0188422373       20.1368331822      -19.9868421731  MEMB      188             0.0000000000
     23218       188  PMPE      H11A          -40.3919814902       19.9853661470      -21.0222867834  MEMB      188             0.0000000000
     23219       188  PMPE      H11B          -40.8866899726       20.3675332356      -19.3326718536  MEMB      188             0.0000000000
     23220       188  PMPE      P             -38.7649923861       18.7335556631      -18.1785649752  MEMB      188             0.0000000000
     23221       188  PMPE      O13           -37.4332932948       19.3865311128      -18.2215726392  MEMB      188             0.0000000000
     23222       188  PMPE      O14           -38.8207697370       17.3098469951      -17.9316332263  MEMB      188             0.0000000000
     23223       188  PMPE      O11           -39.6891551671       19.5058810269      -17.1791934168  MEMB      188             0.0000000000
     23224       188  PMPE      O12           -39.4512859852       18.9091113888      -19.5629842420  MEMB      188             0.0000000000
     23225       188  PMPE      C1            -40.5148638814       18.8381510089      -16.2342815931  MEMB      188             0.0000000000
     23226       188  PMPE      HA            -40.3904615427       17.7350141946      -16.2782614539  MEMB      188             0.0000000000
     23227       188  PMPE      HB            -41.5717372595       19.0060507833      -16.5328608027  MEMB      188             0.0000000000
     23228       188  PMPE      C2            -40.1421769398       19.2387397932      -14.7952292555  MEMB      188             0.0000000000
     23229       188  PMPE      HS            -40.4348585301       20.3092275654      -14.7431290848  MEMB      188             0.0000000000
     23230       188  PMPE      O21           -38.7597229171       19.0302189459      -14.5621339783  MEMB      188             0.0000000000
     23231       188  PMPE      C21           -38.0162006472       20.1178710087      -14.1196337935  MEMB      188             0.0000000000
     23232       188  PMPE      O22           -38.4770913673       21.2327764765      -13.9078095778  MEMB      188             0.0000000000
     23233       188  PMPE      C22           -36.5535097023       19.7524192726      -14.0947469644  MEMB      188             0.0000000000
     23234       188  PMPE      H2R           -36.1505241835       19.9443071515      -15.1121468987  MEMB      188             0.0000000000
     23235       188  PMPE      H2S           -36.4521398167       18.6870862784      -13.7962325966  MEMB      188             0.0000000000
     23236       188  PMPE      C3            -41.0134162782       18.4402702001      -13.7892727440  MEMB      188             0.0000000000
     23237       188  PMPE      HX            -40.7215405741       17.3874218335      -13.9908655580  MEMB      188             0.0000000000
     23238       188  PMPE      HY            -42.1017158883       18.5152300712      -13.9997619757  MEMB      188             0.0000000000
     23239       188  PMPE      O31           -40.7891311128       18.6555364961      -12.3746581422  MEMB      188             0.0000000000
     23240       188  PMPE      C31           -41.3429758268       19.8511962442      -11.9781891084  MEMB      188             0.0000000000
     23241       188  PMPE      O32           -42.1108700351       20.5606815314      -12.6210455855  MEMB      188             0.0000000000
     23242       188  PMPE      C32           -40.8050083294       20.1425898106      -10.6078842243  MEMB      188             0.0000000000
     23243       188  PMPE      H2X           -40.8120795733       21.2426324752      -10.4523946299  MEMB      188             0.0000000000
     23244       188  PMPE      H2Y           -39.7734620926       19.7368219868      -10.5331440445  MEMB      188             0.0000000000
     23245       188  PMPE      C23           -35.7225737794       20.5231482223      -13.1126761788  MEMB      188             0.0000000000
     23246       188  PMPE      H3R           -35.7486195000       21.5906832416      -13.4192892244  MEMB      188             0.0000000000
     23247       188  PMPE      H3S           -34.6489609669       20.2382210572      -13.1348842467  MEMB      188             0.0000000000
     23248       188  PMPE      C24           -36.2021108910       20.4306560690      -11.6385970762  MEMB      188             0.0000000000
     23249       188  PMPE      H4R           -37.1911954129       20.9366505574      -11.6400993437  MEMB      188             0.0000000000
     23250       188  PMPE      H4S           -35.5665866770       21.1531210552      -11.0831923876  MEMB      188             0.0000000000
     23251       188  PMPE      C25           -36.2972993663       19.0696218146      -11.0245545598  MEMB      188             0.0000000000
     23252       188  PMPE      H5R           -35.3825767816       18.4422591746      -11.0879561524  MEMB      188             0.0000000000
     23253       188  PMPE      H5S           -37.0013924388       18.5375719233      -11.6994592858  MEMB      188             0.0000000000
     23254       188  PMPE      C26           -36.5991860867       18.9383279154       -9.4865901017  MEMB      188             0.0000000000
     23255       188  PMPE      H6R           -37.4013183805       19.6309849651       -9.1532267219  MEMB      188             0.0000000000
     23256       188  PMPE      H6S           -35.6752050877       19.2461909145       -8.9519871967  MEMB      188             0.0000000000
     23257       188  PMPE      C27           -36.9505062230       17.4997292217       -9.1645460827  MEMB      188             0.0000000000
     23258       188  PMPE      H7R           -36.2597682406       16.7529880623       -9.6112890412  MEMB      188             0.0000000000
     23259       188  PMPE      H7S           -37.8788823018       17.2494030215       -9.7211208776  MEMB      188             0.0000000000
     23260       188  PMPE      C28           -37.1940069908       17.2288679605       -7.6749819920  MEMB      188             0.0000000000
     23261       188  PMPE      H8R           -38.1677703722       17.7075501968       -7.4362999942  MEMB      188             0.0000000000
     23262       188  PMPE      H8S           -36.2811679415       17.6524274566       -7.2041925474  MEMB      188             0.0000000000
     23263       188  PMPE      C29           -37.3788953944       15.7355732549       -7.4357233790  MEMB      188             0.0000000000
     23264       188  PMPE      H9R           -36.5786211449       15.0144598788       -7.7075273817  MEMB      188             0.0000000000
     23265       188  PMPE      C217          -38.8746077112       15.2765776873       -7.6991670265  MEMB      188             0.0000000000
     23266       188  PMPE      H17R          -39.0446274753       14.2881522667       -8.1078209781  MEMB      188             0.0000000000
     23267       188  PMPE      H17S          -39.5089488322       16.1309253904       -7.9006367292  MEMB      188             0.0000000000
     23268       188  PMPE      C210          -38.3449875892       15.3519504167       -6.3195922624  MEMB      188             0.0000000000
     23269       188  PMPE      H10R          -38.2431517147       14.3730779785       -5.8040737232  MEMB      188             0.0000000000
     23270       188  PMPE      C211          -39.0288402596       16.4384306777       -5.3865444370  MEMB      188             0.0000000000
     23271       188  PMPE      H11R          -39.8791193667       16.0162576942       -4.8093823259  MEMB      188             0.0000000000
     23272       188  PMPE      H11S          -39.3726787559       17.3530622324       -5.9152650823  MEMB      188             0.0000000000
     23273       188  PMPE      C212          -37.9552568990       16.7842413685       -4.2846691809  MEMB      188             0.0000000000
     23274       188  PMPE      H12R          -37.2306589376       17.4660974500       -4.7789875342  MEMB      188             0.0000000000
     23275       188  PMPE      H12S          -37.3002923940       15.9112899271       -4.0765874480  MEMB      188             0.0000000000
     23276       188  PMPE      C213          -38.6988768478       17.5411558077       -3.0838331393  MEMB      188             0.0000000000
     23277       188  PMPE      H13R          -37.9745929322       17.5880803197       -2.2426840612  MEMB      188             0.0000000000
     23278       188  PMPE      H13S          -39.4482513743       16.8443365311       -2.6511653452  MEMB      188             0.0000000000
     23279       188  PMPE      C214          -39.3159649051       18.9080726591       -3.2870004993  MEMB      188             0.0000000000
     23280       188  PMPE      H14R          -40.1410317999       18.9460227108       -4.0300650318  MEMB      188             0.0000000000
     23281       188  PMPE      H14S          -38.4975784496       19.5856952378       -3.6116422374  MEMB      188             0.0000000000
     23282       188  PMPE      C215          -39.8328845496       19.5089492373       -1.9179702682  MEMB      188             0.0000000000
     23283       188  PMPE      H15R          -38.9978763314       19.6067250328       -1.1916631665  MEMB      188             0.0000000000
     23284       188  PMPE      H15S          -40.4865149560       18.7283217584       -1.4733255668  MEMB      188             0.0000000000
     23285       188  PMPE      C216          -40.6531733576       20.7894840022       -2.0543248910  MEMB      188             0.0000000000
     23286       188  PMPE      H16R          -41.2344783648       20.9030504317       -1.1143742454  MEMB      188             0.0000000000
     23287       188  PMPE      H16S          -40.0645719990       21.6891708738       -2.3343840166  MEMB      188             0.0000000000
     23288       188  PMPE      H16T          -41.3757667762       20.6361894612       -2.8841928991  MEMB      188             0.0000000000
     23289       188  PMPE      C33           -41.5982713560       19.5378243841       -9.4222545774  MEMB      188             0.0000000000
     23290       188  PMPE      H3X           -41.8682294233       18.4725168563       -9.5852372931  MEMB      188             0.0000000000
     23291       188  PMPE      H3Y           -42.5134623335       20.1567587865       -9.3053529692  MEMB      188             0.0000000000
     23292       188  PMPE      C34           -40.7508250480       19.5940180530       -8.1430459889  MEMB      188             0.0000000000
     23293       188  PMPE      H4X           -39.8509709219       18.9661555137       -8.3173219608  MEMB      188             0.0000000000
     23294       188  PMPE      H4Y           -41.4381322808       19.1214482526       -7.4091470254  MEMB      188             0.0000000000
     23295       188  PMPE      C35           -40.4218986876       20.9230441937       -7.4563645273  MEMB      188             0.0000000000
     23296       188  PMPE      H5X           -41.3888460089       21.3001338675       -7.0599591755  MEMB      188             0.0000000000
     23297       188  PMPE      H5Y           -40.0857063911       21.7283161767       -8.1439931725  MEMB      188             0.0000000000
     23298       188  PMPE      C36           -39.3142439148       20.9000879912       -6.3304510762  MEMB      188             0.0000000000
     23299       188  PMPE      H6X           -38.3956489554       20.3978387259       -6.7022709640  MEMB      188             0.0000000000
     23300       188  PMPE      H6Y           -39.6559370049       20.4700894966       -5.3647030763  MEMB      188             0.0000000000
     23301       188  PMPE      C37           -39.0742243891       22.3871666678       -5.8340256074  MEMB      188             0.0000000000
     23302       188  PMPE      H7X           -40.1012695306       22.7711198352       -5.6549192130  MEMB      188             0.0000000000
     23303       188  PMPE      H7Y           -38.6162041686       23.0690035701       -6.5821143599  MEMB      188             0.0000000000
     23304       188  PMPE      C38           -38.3605456648       22.4927716775       -4.4656707187  MEMB      188             0.0000000000
     23305       188  PMPE      H8X           -38.8700220474       21.7358501805       -3.8317746990  MEMB      188             0.0000000000
     23306       188  PMPE      H8Y           -38.6346807943       23.4677685895       -4.0089958155  MEMB      188             0.0000000000
     23307       188  PMPE      C39           -36.8335700054       22.3289103469       -4.6184400690  MEMB      188             0.0000000000
     23308       188  PMPE      H9X           -36.5179270155       23.1066614183       -5.3463095387  MEMB      188             0.0000000000
     23309       188  PMPE      H9Y           -36.7385130151       21.3352815552       -5.1062792022  MEMB      188             0.0000000000
     23310       188  PMPE      C310          -36.0626710224       22.2952892203       -3.3056794223  MEMB      188             0.0000000000
     23311       188  PMPE      H10X          -36.3681656392       23.2591171280       -2.8452123245  MEMB      188             0.0000000000
     23312       188  PMPE      H10Y          -34.9778173380       22.2833040688       -3.5449909222  MEMB      188             0.0000000000
     23313       188  PMPE      C311          -36.4314783079       21.0592998245       -2.3961961382  MEMB      188             0.0000000000
     23314       188  PMPE      H11X          -36.5763323702       20.2087130348       -3.0960812366  MEMB      188             0.0000000000
     23315       188  PMPE      H11Y          -37.3869569972       21.2810650235       -1.8744659287  MEMB      188             0.0000000000
     23316       188  PMPE      C312          -35.2660898831       20.7981338321       -1.4487671165  MEMB      188             0.0000000000
     23317       188  PMPE      H12X          -35.1429073863       21.6568516843       -0.7546842963  MEMB      188             0.0000000000
     23318       188  PMPE      H12Y          -34.3221440662       20.6511175218       -2.0159295130  MEMB      188             0.0000000000
     23319       188  PMPE      C313          -35.5530715832       19.5000243213       -0.6819132871  MEMB      188             0.0000000000
     23320       188  PMPE      H13X          -34.5420780344       19.3192256286       -0.2582087792  MEMB      188             0.0000000000
     23321       188  PMPE      H13Y          -35.9623722316       18.6746695862       -1.3028663265  MEMB      188             0.0000000000
     23322       188  PMPE      C314          -36.3523626790       19.6417969021        0.6033865517  MEMB      188             0.0000000000
     23323       188  PMPE      H14X          -37.4222180644       19.7492670128        0.3237797024  MEMB      188             0.0000000000
     23324       188  PMPE      H14Y          -36.0725272108       20.4994765850        1.2517676720  MEMB      188             0.0000000000
     23325       188  PMPE      C315          -36.1814915530       18.3170575949        1.3652956402  MEMB      188             0.0000000000
     23326       188  PMPE      H15X          -36.4203191913       18.4880595465        2.4367612870  MEMB      188             0.0000000000
     23327       188  PMPE      H15Y          -35.1254304292       18.0651320564        1.1295212125  MEMB      188             0.0000000000
     23328       188  PMPE      C316          -37.0690764975       17.1600314548        0.9256871347  MEMB      188             0.0000000000
     23329       188  PMPE      H16X          -36.9253482185       16.8870149029       -0.1416118857  MEMB      188             0.0000000000
     23330       188  PMPE      H16Y          -38.1027755279       17.5407911671        0.7814315574  MEMB      188             0.0000000000
     23331       188  PMPE      H16Z          -36.7768261422       16.2500746479        1.4921569057  MEMB      188             0.0000000000
     23332       189  PMPE      N              35.1070322952       23.8234600200      -20.5166462490  MEMB      189             0.0000000000
     23333       189  PMPE      HN1            35.2934846373       24.7264522571      -20.9977289296  MEMB      189             0.0000000000
     23334       189  PMPE      HN2            35.9786103665       23.2918585278      -20.3182741344  MEMB      189             0.0000000000
     23335       189  PMPE      HN3            34.4952845990       23.2444809631      -21.1266855947  MEMB      189             0.0000000000
     23336       189  PMPE      C12            34.4761041485       24.1749153722      -19.2022767245  MEMB      189             0.0000000000
     23337       189  PMPE      H12A           33.9976771614       23.2811355676      -18.7477587922  MEMB      189             0.0000000000
     23338       189  PMPE      H12B           33.7040843148       24.8972808878      -19.5435893390  MEMB      189             0.0000000000
     23339       189  PMPE      C11            35.3775030522       24.7627956850      -18.1562787264  MEMB      189             0.0000000000
     23340       189  PMPE      H11A           35.9960667730       23.8546162517      -17.9922356091  MEMB      189             0.0000000000
     23341       189  PMPE      H11B           34.9174251304       25.0258343176      -17.1798259318  MEMB      189             0.0000000000
     23342       189  PMPE      P              35.4285229845       27.2130258682      -18.8922629094  MEMB      189             0.0000000000
     23343       189  PMPE      O13            34.8196303342       27.2381289296      -20.2358470040  MEMB      189             0.0000000000
     23344       189  PMPE      O14            36.4153707401       28.2625973720      -18.6014548564  MEMB      189             0.0000000000
     23345       189  PMPE      O11            34.2805221871       27.2191284712      -17.7406916751  MEMB      189             0.0000000000
     23346       189  PMPE      O12            36.1780006787       25.8423796712      -18.6545418555  MEMB      189             0.0000000000
     23347       189  PMPE      C1             33.2906095789       28.2774221333      -17.7642863395  MEMB      189             0.0000000000
     23348       189  PMPE      HA             32.3526329837       27.8403438614      -18.1686174307  MEMB      189             0.0000000000
     23349       189  PMPE      HB             33.5412384182       29.0766944329      -18.4941287773  MEMB      189             0.0000000000
     23350       189  PMPE      C2             33.1040684716       28.8666930552      -16.3727856590  MEMB      189             0.0000000000
     23351       189  PMPE      HS             32.6733431729       29.8721479659      -16.5673551847  MEMB      189             0.0000000000
     23352       189  PMPE      O21            34.3971407984       28.9859299572      -15.7010373341  MEMB      189             0.0000000000
     23353       189  PMPE      C21            34.5083461168       29.7077878726      -14.5606372873  MEMB      189             0.0000000000
     23354       189  PMPE      O22            33.6211370001       30.3833582874      -14.0841056318  MEMB      189             0.0000000000
     23355       189  PMPE      C22            35.9688765706       29.6719434507      -14.0962705384  MEMB      189             0.0000000000
     23356       189  PMPE      H2R            36.2505801056       30.7165523665      -13.8437702797  MEMB      189             0.0000000000
     23357       189  PMPE      H2S            36.7426581753       29.3204896968      -14.8118562294  MEMB      189             0.0000000000
     23358       189  PMPE      C3             32.1797644631       27.9889872468      -15.5386115940  MEMB      189             0.0000000000
     23359       189  PMPE      HX             31.1051664938       27.9628100329      -15.8194582895  MEMB      189             0.0000000000
     23360       189  PMPE      HY             32.1590375413       28.4171244532      -14.5136288252  MEMB      189             0.0000000000
     23361       189  PMPE      O31            32.8099732990       26.6444913059      -15.5191730794  MEMB      189             0.0000000000
     23362       189  PMPE      C31            32.9006225240       26.1085520637      -14.3549903305  MEMB      189             0.0000000000
     23363       189  PMPE      O32            32.6237089424       26.5033683463      -13.2224363438  MEMB      189             0.0000000000
     23364       189  PMPE      C32            33.5121749494       24.7146984214      -14.5869888352  MEMB      189             0.0000000000
     23365       189  PMPE      H2X            34.3378875425       24.7615348688      -15.3288285906  MEMB      189             0.0000000000
     23366       189  PMPE      H2Y            32.7521128599       24.2113847506      -15.2220493816  MEMB      189             0.0000000000
     23367       189  PMPE      C23            36.1176332777       28.8805753519      -12.7533202923  MEMB      189             0.0000000000
     23368       189  PMPE      H3R            37.1772160291       28.7193227128      -12.4607401274  MEMB      189             0.0000000000
     23369       189  PMPE      H3S            35.6605183387       27.8683329441      -12.7803790035  MEMB      189             0.0000000000
     23370       189  PMPE      C24            35.5043855139       29.5604559605      -11.5343540429  MEMB      189             0.0000000000
     23371       189  PMPE      H4R            34.4244363124       29.3051888191      -11.5879214200  MEMB      189             0.0000000000
     23372       189  PMPE      H4S            35.5089205594       30.6668973824      -11.4339169975  MEMB      189             0.0000000000
     23373       189  PMPE      C25            36.1647165983       29.0256749822      -10.2816689834  MEMB      189             0.0000000000
     23374       189  PMPE      H5R            37.2427774797       29.2891100443      -10.3337054965  MEMB      189             0.0000000000
     23375       189  PMPE      H5S            36.1252416552       27.9155981057      -10.3038454822  MEMB      189             0.0000000000
     23376       189  PMPE      C26            35.6443298704       29.5601175796       -9.0413709531  MEMB      189             0.0000000000
     23377       189  PMPE      H6R            34.5760380196       29.3053663136       -8.8735158930  MEMB      189             0.0000000000
     23378       189  PMPE      H6S            35.6849678944       30.6529180078       -9.2374751479  MEMB      189             0.0000000000
     23379       189  PMPE      C27            36.5166438835       29.1366855959       -7.8663873199  MEMB      189             0.0000000000
     23380       189  PMPE      H7R            37.5550352335       29.4507601535       -8.1060153448  MEMB      189             0.0000000000
     23381       189  PMPE      H7S            36.4578443101       28.0366640883       -7.7221082147  MEMB      189             0.0000000000
     23382       189  PMPE      C28            36.1020445472       29.7497160283       -6.5017100857  MEMB      189             0.0000000000
     23383       189  PMPE      H8R            35.0541545340       29.4071017358       -6.3643677083  MEMB      189             0.0000000000
     23384       189  PMPE      H8S            36.0731427492       30.8434750965       -6.6945229557  MEMB      189             0.0000000000
     23385       189  PMPE      C29            37.0079562989       29.3489428506       -5.3696379238  MEMB      189             0.0000000000
     23386       189  PMPE      H9R            38.0818141605       29.4126360761       -5.6472953868  MEMB      189             0.0000000000
     23387       189  PMPE      C217           36.6481242801       28.1050364501       -4.5594607765  MEMB      189             0.0000000000
     23388       189  PMPE      H17R           37.4835728493       27.5384138307       -4.1672189065  MEMB      189             0.0000000000
     23389       189  PMPE      H17S           35.5934321995       27.8600273120       -4.5374592551  MEMB      189             0.0000000000
     23390       189  PMPE      C210           36.6904130143       29.5087825570       -3.9692451105  MEMB      189             0.0000000000
     23391       189  PMPE      H10R           37.5726529236       29.7293145975       -3.3310135425  MEMB      189             0.0000000000
     23392       189  PMPE      C211           35.3431237535       30.0878377508       -3.6401477677  MEMB      189             0.0000000000
     23393       189  PMPE      H11R           34.9927509870       29.7982575152       -2.6263903472  MEMB      189             0.0000000000
     23394       189  PMPE      H11S           34.6078769205       29.5786748703       -4.2993025785  MEMB      189             0.0000000000
     23395       189  PMPE      C212           35.2153923479       31.5975050959       -3.9652607129  MEMB      189             0.0000000000
     23396       189  PMPE      H12R           34.2734532977       31.7484732302       -4.5347163823  MEMB      189             0.0000000000
     23397       189  PMPE      H12S           35.9897554616       31.8943332265       -4.7045682705  MEMB      189             0.0000000000
     23398       189  PMPE      C213           35.4059421279       32.5725319096       -2.7254106244  MEMB      189             0.0000000000
     23399       189  PMPE      H13R           34.6163031689       32.3921191808       -1.9649875852  MEMB      189             0.0000000000
     23400       189  PMPE      H13S           35.3123586350       33.6117231589       -3.1070437931  MEMB      189             0.0000000000
     23401       189  PMPE      C214           36.7909061429       32.4978838836       -2.0699181586  MEMB      189             0.0000000000
     23402       189  PMPE      H14R           37.6026143750       32.5164864354       -2.8282757897  MEMB      189             0.0000000000
     23403       189  PMPE      H14S           36.8029288413       31.4412799571       -1.7267484603  MEMB      189             0.0000000000
     23404       189  PMPE      C215           36.9991648104       33.4160223890       -0.9166478989  MEMB      189             0.0000000000
     23405       189  PMPE      H15R           36.3025051900       33.1814106596       -0.0836147840  MEMB      189             0.0000000000
     23406       189  PMPE      H15S           36.8039068138       34.4734460515       -1.1960228556  MEMB      189             0.0000000000
     23407       189  PMPE      C216           38.4413999522       33.2633715516       -0.3456740896  MEMB      189             0.0000000000
     23408       189  PMPE      H16R           38.6411716422       33.9759222771        0.4829906042  MEMB      189             0.0000000000
     23409       189  PMPE      H16S           38.3807145864       32.2123441686        0.0092629052  MEMB      189             0.0000000000
     23410       189  PMPE      H16T           39.3194466589       33.2779066283       -1.0262192637  MEMB      189             0.0000000000
     23411       189  PMPE      C33            33.9771611045       23.9063248401      -13.4005299656  MEMB      189             0.0000000000
     23412       189  PMPE      H3X            33.8907172356       22.8416887594      -13.7061418844  MEMB      189             0.0000000000
     23413       189  PMPE      H3Y            33.1402081295       24.0353015170      -12.6813670104  MEMB      189             0.0000000000
     23414       189  PMPE      C34            35.3165671390       24.2117385810      -12.7659891275  MEMB      189             0.0000000000
     23415       189  PMPE      H4X            35.3693875698       25.2691860600      -12.4293350346  MEMB      189             0.0000000000
     23416       189  PMPE      H4Y            36.1023310021       24.1051460166      -13.5441495331  MEMB      189             0.0000000000
     23417       189  PMPE      C35            35.6684127080       23.4198559014      -11.5429594271  MEMB      189             0.0000000000
     23418       189  PMPE      H5X            35.4778285390       22.3386874219      -11.7134676872  MEMB      189             0.0000000000
     23419       189  PMPE      H5Y            35.0969733835       23.7978928808      -10.6683933987  MEMB      189             0.0000000000
     23420       189  PMPE      C36            37.1750809727       23.6744424662      -11.2100771422  MEMB      189             0.0000000000
     23421       189  PMPE      H6X            37.2938002873       24.7757661320      -11.1245590867  MEMB      189             0.0000000000
     23422       189  PMPE      H6Y            37.7555851961       23.2539612356      -12.0589181027  MEMB      189             0.0000000000
     23423       189  PMPE      C37            37.6220745718       23.0298955134       -9.9084989694  MEMB      189             0.0000000000
     23424       189  PMPE      H7X            38.6799268023       23.3441802630       -9.7800679693  MEMB      189             0.0000000000
     23425       189  PMPE      H7Y            37.6159880594       21.9190076537       -9.8939207594  MEMB      189             0.0000000000
     23426       189  PMPE      C38            36.8334817954       23.5369483467       -8.6299718483  MEMB      189             0.0000000000
     23427       189  PMPE      H8X            35.8647677143       22.9938803087       -8.6614510101  MEMB      189             0.0000000000
     23428       189  PMPE      H8Y            36.7140180903       24.6403077000       -8.6814243288  MEMB      189             0.0000000000
     23429       189  PMPE      C39            37.4622839501       23.1583426872       -7.2259559086  MEMB      189             0.0000000000
     23430       189  PMPE      H9X            38.4978056789       23.5607138460       -7.2153242085  MEMB      189             0.0000000000
     23431       189  PMPE      H9Y            37.5251302807       22.0492922310       -7.2064987664  MEMB      189             0.0000000000
     23432       189  PMPE      C310           36.7318256803       23.7794003071       -5.9692242552  MEMB      189             0.0000000000
     23433       189  PMPE      H10X           35.7120707964       23.3641735028       -5.8208749220  MEMB      189             0.0000000000
     23434       189  PMPE      H10Y           36.7148762244       24.8717167851       -6.1714087665  MEMB      189             0.0000000000
     23435       189  PMPE      C311           37.4442464660       23.6019786026       -4.6278985205  MEMB      189             0.0000000000
     23436       189  PMPE      H11X           38.4088940941       24.1357483847       -4.7652501230  MEMB      189             0.0000000000
     23437       189  PMPE      H11Y           37.4784771636       22.4991993434       -4.4974096281  MEMB      189             0.0000000000
     23438       189  PMPE      C312           36.7284396778       24.1587993019       -3.3797309134  MEMB      189             0.0000000000
     23439       189  PMPE      H12X           35.7074385542       23.7239424873       -3.3270321781  MEMB      189             0.0000000000
     23440       189  PMPE      H12Y           36.7841405951       25.2418063183       -3.6212132735  MEMB      189             0.0000000000
     23441       189  PMPE      C313           37.3508915168       23.8858027964       -1.9718050700  MEMB      189             0.0000000000
     23442       189  PMPE      H13X           38.4577498818       23.8660234486       -1.8780258076  MEMB      189             0.0000000000
     23443       189  PMPE      H13Y           37.1661970245       22.8329117156       -1.6691015693  MEMB      189             0.0000000000
     23444       189  PMPE      C314           36.6874108660       24.6655674268       -0.8084078620  MEMB      189             0.0000000000
     23445       189  PMPE      H14X           36.8325966861       24.0200526893        0.0840895206  MEMB      189             0.0000000000
     23446       189  PMPE      H14Y           35.5805818725       24.7605153041       -0.8237511812  MEMB      189             0.0000000000
     23447       189  PMPE      C315           37.2482544328       26.0809154753       -0.4803723828  MEMB      189             0.0000000000
     23448       189  PMPE      H15X           37.1422330325       26.7432818979       -1.3660091454  MEMB      189             0.0000000000
     23449       189  PMPE      H15Y           38.3293363298       25.9400892058       -0.2664787381  MEMB      189             0.0000000000
     23450       189  PMPE      C316           36.6436947237       26.7056957895        0.8301450181  MEMB      189             0.0000000000
     23451       189  PMPE      H16X           36.9309002447       27.7771007163        0.8927961176  MEMB      189             0.0000000000
     23452       189  PMPE      H16Y           37.1494425049       26.2761400305        1.7212248093  MEMB      189             0.0000000000
     23453       189  PMPE      H16Z           35.5613513094       26.4814457575        0.9422418933  MEMB      189             0.0000000000
     23454       190  PMPE      N              29.3986976631       31.3692784460      -21.3628611755  MEMB      190             0.0000000000
     23455       190  PMPE      HN1            29.2543406350       31.2400294301      -22.3846517324  MEMB      190             0.0000000000
     23456       190  PMPE      HN2            29.8718934900       32.2950078324      -21.3362013849  MEMB      190             0.0000000000
     23457       190  PMPE      HN3            30.0944870529       30.6952239157      -20.9845392457  MEMB      190             0.0000000000
     23458       190  PMPE      C12            28.0580692580       31.1874655264      -20.6375088720  MEMB      190             0.0000000000
     23459       190  PMPE      H12A           27.6982089482       30.2314948805      -21.0744776634  MEMB      190             0.0000000000
     23460       190  PMPE      H12B           27.3638650395       31.9700146103      -21.0116992945  MEMB      190             0.0000000000
     23461       190  PMPE      C11            28.2085033273       31.1579834858      -19.0515556560  MEMB      190             0.0000000000
     23462       190  PMPE      H11A           28.6830885043       30.2099411264      -18.7194327551  MEMB      190             0.0000000000
     23463       190  PMPE      H11B           27.1737345349       31.2307148904      -18.6537053214  MEMB      190             0.0000000000
     23464       190  PMPE      P              28.6595516811       33.7629522672      -18.2603823834  MEMB      190             0.0000000000
     23465       190  PMPE      O13            27.4638975091       34.2774073427      -18.9070028704  MEMB      190             0.0000000000
     23466       190  PMPE      O14            29.9229218986       34.4934962100      -18.5864983627  MEMB      190             0.0000000000
     23467       190  PMPE      O11            28.3966850445       33.7314145720      -16.6332015222  MEMB      190             0.0000000000
     23468       190  PMPE      O12            28.9685079767       32.2183925020      -18.5609891605  MEMB      190             0.0000000000
     23469       190  PMPE      C1             29.2263813686       32.8157777659      -15.9228930860  MEMB      190             0.0000000000
     23470       190  PMPE      HA             29.6741738837       33.3247455337      -15.0426916092  MEMB      190             0.0000000000
     23471       190  PMPE      HB             30.0058906254       32.3449232742      -16.5592754066  MEMB      190             0.0000000000
     23472       190  PMPE      C2             28.3132968220       31.7867466185      -15.3186104378  MEMB      190             0.0000000000
     23473       190  PMPE      HS             27.8452571239       31.1390914493      -16.0904931530  MEMB      190             0.0000000000
     23474       190  PMPE      O21            27.3150505946       32.3552839758      -14.4752058343  MEMB      190             0.0000000000
     23475       190  PMPE      C21            26.1664171976       32.6559942812      -15.1206355303  MEMB      190             0.0000000000
     23476       190  PMPE      O22            25.7976206207       32.2224410038      -16.1703575700  MEMB      190             0.0000000000
     23477       190  PMPE      C22            25.3012613255       33.3433268193      -14.1083161551  MEMB      190             0.0000000000
     23478       190  PMPE      H2R            24.9460130964       32.6887151266      -13.2839356672  MEMB      190             0.0000000000
     23479       190  PMPE      H2S            24.3534439263       33.6077065284      -14.6241329237  MEMB      190             0.0000000000
     23480       190  PMPE      C3             29.1864433794       30.7375630165      -14.4736780913  MEMB      190             0.0000000000
     23481       190  PMPE      HX             29.8711538893       30.2153544493      -15.1756684274  MEMB      190             0.0000000000
     23482       190  PMPE      HY             28.4626564562       29.9541489531      -14.1626863383  MEMB      190             0.0000000000
     23483       190  PMPE      O31            29.8690957982       31.3630262201      -13.3443426576  MEMB      190             0.0000000000
     23484       190  PMPE      C31            30.6823423946       30.5918210619      -12.7645784555  MEMB      190             0.0000000000
     23485       190  PMPE      O32            31.1588004119       29.5146694118      -13.1612962198  MEMB      190             0.0000000000
     23486       190  PMPE      C32            30.9859506440       31.3067411537      -11.4702327155  MEMB      190             0.0000000000
     23487       190  PMPE      H2X            31.3151854166       32.3414822467      -11.7052570831  MEMB      190             0.0000000000
     23488       190  PMPE      H2Y            31.7514771786       30.8002208382      -10.8443517904  MEMB      190             0.0000000000
     23489       190  PMPE      C23            26.0381312753       34.5853473029      -13.5569148912  MEMB      190             0.0000000000
     23490       190  PMPE      H3R            25.9568250696       35.2694636237      -14.4285200585  MEMB      190             0.0000000000
     23491       190  PMPE      H3S            27.0949311240       34.4820151599      -13.2300855621  MEMB      190             0.0000000000
     23492       190  PMPE      C24            25.1766016677       35.4116829043      -12.5298082090  MEMB      190             0.0000000000
     23493       190  PMPE      H4R            24.0990291519       35.3318151574      -12.7882254407  MEMB      190             0.0000000000
     23494       190  PMPE      H4S            25.4091799672       36.4800270052      -12.7269616296  MEMB      190             0.0000000000
     23495       190  PMPE      C25            25.4964082379       35.1953700776      -11.0381296883  MEMB      190             0.0000000000
     23496       190  PMPE      H5R            26.6045663286       35.2676493241      -11.0710266216  MEMB      190             0.0000000000
     23497       190  PMPE      H5S            25.1685656994       34.1787020877      -10.7327997292  MEMB      190             0.0000000000
     23498       190  PMPE      C26            24.8856956517       36.2893601074      -10.1364060105  MEMB      190             0.0000000000
     23499       190  PMPE      H6R            23.7888375409       36.2701015814      -10.3120554464  MEMB      190             0.0000000000
     23500       190  PMPE      H6S            25.2898174909       37.2934476370      -10.3870351786  MEMB      190             0.0000000000
     23501       190  PMPE      C27            25.1064364293       36.0726345907       -8.6622266380  MEMB      190             0.0000000000
     23502       190  PMPE      H7R            24.8853576014       35.0067432064       -8.4401431409  MEMB      190             0.0000000000
     23503       190  PMPE      H7S            24.3588233730       36.7049290867       -8.1372504919  MEMB      190             0.0000000000
     23504       190  PMPE      C28            26.5185888830       36.5160295718       -8.2288397915  MEMB      190             0.0000000000
     23505       190  PMPE      H8R            26.8902949974       37.3936040192       -8.7998202966  MEMB      190             0.0000000000
     23506       190  PMPE      H8S            27.2858388848       35.7554795714       -8.4880918965  MEMB      190             0.0000000000
     23507       190  PMPE      C29            26.5687585700       36.8874799670       -6.7718633372  MEMB      190             0.0000000000
     23508       190  PMPE      H9R            26.0444559717       37.8098820905       -6.4423154667  MEMB      190             0.0000000000
     23509       190  PMPE      C217           27.9630035873       36.7141659283       -6.1515246706  MEMB      190             0.0000000000
     23510       190  PMPE      H17R           28.2781138445       37.4653430319       -5.4378528233  MEMB      190             0.0000000000
     23511       190  PMPE      H17S           28.6262072536       36.0697491352       -6.7152410570  MEMB      190             0.0000000000
     23512       190  PMPE      C210           26.7496385548       35.8657314410       -5.6776864281  MEMB      190             0.0000000000
     23513       190  PMPE      H10R           26.1831996938       36.2112651648       -4.7865784556  MEMB      190             0.0000000000
     23514       190  PMPE      C211           26.6961564669       34.4066251141       -5.9981606871  MEMB      190             0.0000000000
     23515       190  PMPE      H11R           27.1608102401       34.0935396434       -6.9575335066  MEMB      190             0.0000000000
     23516       190  PMPE      H11S           25.6701991048       33.9816790406       -6.0321261846  MEMB      190             0.0000000000
     23517       190  PMPE      C212           27.3065647092       33.5769242398       -4.8483180846  MEMB      190             0.0000000000
     23518       190  PMPE      H12R           28.3635024170       33.9170022488       -4.8089410898  MEMB      190             0.0000000000
     23519       190  PMPE      H12S           27.1301846123       32.4823328985       -4.9195988174  MEMB      190             0.0000000000
     23520       190  PMPE      C213           26.7671423008       34.0074723604       -3.4369243208  MEMB      190             0.0000000000
     23521       190  PMPE      H13R           27.0004910948       35.0864974103       -3.3121259037  MEMB      190             0.0000000000
     23522       190  PMPE      H13S           27.2539108531       33.4743104382       -2.5924616859  MEMB      190             0.0000000000
     23523       190  PMPE      C214           25.2957835558       33.9064861174       -3.2388048339  MEMB      190             0.0000000000
     23524       190  PMPE      H14R           25.0900137995       32.8148895326       -3.2587154363  MEMB      190             0.0000000000
     23525       190  PMPE      H14S           24.7464588654       34.5291878354       -3.9769141650  MEMB      190             0.0000000000
     23526       190  PMPE      C215           24.8182622068       34.3725258499       -1.8450904624  MEMB      190             0.0000000000
     23527       190  PMPE      H15R           24.8753519867       35.4675463589       -1.6662282254  MEMB      190             0.0000000000
     23528       190  PMPE      H15S           25.5404821893       33.9829556072       -1.0961217023  MEMB      190             0.0000000000
     23529       190  PMPE      C216           23.4132409783       33.8366293401       -1.4904708187  MEMB      190             0.0000000000
     23530       190  PMPE      H16R           22.7643991101       33.7349291985       -2.3865631528  MEMB      190             0.0000000000
     23531       190  PMPE      H16S           23.5831018959       32.8904868508       -0.9334410809  MEMB      190             0.0000000000
     23532       190  PMPE      H16T           22.9404763230       34.6416072350       -0.8881207467  MEMB      190             0.0000000000
     23533       190  PMPE      C33            29.8484293868       31.4422861203      -10.4692747179  MEMB      190             0.0000000000
     23534       190  PMPE      H3X            29.6410843233       30.3976176314      -10.1530522168  MEMB      190             0.0000000000
     23535       190  PMPE      H3Y            29.0117012760       31.9882842596      -10.9551691366  MEMB      190             0.0000000000
     23536       190  PMPE      C34            30.2431811049       32.1428007185       -9.1884477305  MEMB      190             0.0000000000
     23537       190  PMPE      H4X            30.9671627009       31.5765716206       -8.5643038339  MEMB      190             0.0000000000
     23538       190  PMPE      H4Y            29.3285854493       32.2684966198       -8.5703564598  MEMB      190             0.0000000000
     23539       190  PMPE      C35            30.8249179022       33.5618933070       -9.4636373484  MEMB      190             0.0000000000
     23540       190  PMPE      H5X            30.1389545990       34.2591293719       -9.9905504199  MEMB      190             0.0000000000
     23541       190  PMPE      H5Y            31.7866599238       33.5579693885      -10.0198372221  MEMB      190             0.0000000000
     23542       190  PMPE      C36            31.2050390017       34.2733228164       -8.1298296493  MEMB      190             0.0000000000
     23543       190  PMPE      H6X            30.2722327255       34.2821886127       -7.5264099420  MEMB      190             0.0000000000
     23544       190  PMPE      H6Y            31.4473757778       35.3169802800       -8.4237221253  MEMB      190             0.0000000000
     23545       190  PMPE      C37            32.3611498680       33.6574867039       -7.3678944125  MEMB      190             0.0000000000
     23546       190  PMPE      H7X            33.1394830360       33.4292917139       -8.1271341709  MEMB      190             0.0000000000
     23547       190  PMPE      H7Y            32.0007969241       32.7199207232       -6.8930925151  MEMB      190             0.0000000000
     23548       190  PMPE      C38            32.9994939981       34.6084265877       -6.3240754537  MEMB      190             0.0000000000
     23549       190  PMPE      H8X            33.1628328152       35.6533638617       -6.6642925789  MEMB      190             0.0000000000
     23550       190  PMPE      H8Y            33.9493937789       34.1195810466       -6.0190473820  MEMB      190             0.0000000000
     23551       190  PMPE      C39            31.9091269104       34.8386698983       -5.1852356308  MEMB      190             0.0000000000
     23552       190  PMPE      H9X            30.9620480971       35.3230330718       -5.5057900139  MEMB      190             0.0000000000
     23553       190  PMPE      H9Y            32.3033282244       35.6316854014       -4.5143763073  MEMB      190             0.0000000000
     23554       190  PMPE      C310           31.4321932585       33.5810386042       -4.5525573741  MEMB      190             0.0000000000
     23555       190  PMPE      H10X           32.2496763263       32.8342329276       -4.4613213566  MEMB      190             0.0000000000
     23556       190  PMPE      H10Y           30.6037003956       33.1367050087       -5.1445775041  MEMB      190             0.0000000000
     23557       190  PMPE      C311           31.0084527098       33.8226968552       -3.0802567045  MEMB      190             0.0000000000
     23558       190  PMPE      H11X           30.2993691890       34.6779478603       -3.0720695317  MEMB      190             0.0000000000
     23559       190  PMPE      H11Y           31.8060569602       33.9485216390       -2.3171611628  MEMB      190             0.0000000000
     23560       190  PMPE      C312           30.3300457059       32.5110080494       -2.6401799344  MEMB      190             0.0000000000
     23561       190  PMPE      H12X           30.8930498163       31.5994579606       -2.9341592513  MEMB      190             0.0000000000
     23562       190  PMPE      H12Y           29.3994708937       32.4855618746       -3.2465664935  MEMB      190             0.0000000000
     23563       190  PMPE      C313           30.1219886291       32.3941092975       -1.0529612829  MEMB      190             0.0000000000
     23564       190  PMPE      H13X           31.1944211408       32.5816346546       -0.8315027531  MEMB      190             0.0000000000
     23565       190  PMPE      H13Y           29.7589891554       31.3493400212       -0.9480340156  MEMB      190             0.0000000000
     23566       190  PMPE      C314           29.1920687927       33.3857343639       -0.3410655699  MEMB      190             0.0000000000
     23567       190  PMPE      H14X           28.1937695265       32.9138473410       -0.4637113427  MEMB      190             0.0000000000
     23568       190  PMPE      H14Y           29.1303120493       34.3894514333       -0.8133562500  MEMB      190             0.0000000000
     23569       190  PMPE      C315           29.7321545758       33.6135850328        1.1024888869  MEMB      190             0.0000000000
     23570       190  PMPE      H15X           30.8410652080       33.6456035188        1.0423792662  MEMB      190             0.0000000000
     23571       190  PMPE      H15Y           29.4914175780       32.7526750474        1.7621870010  MEMB      190             0.0000000000
     23572       190  PMPE      C316           29.4473898735       34.9715645017        1.7238878329  MEMB      190             0.0000000000
     23573       190  PMPE      H16X           30.0944807949       35.6770119964        1.1600264235  MEMB      190             0.0000000000
     23574       190  PMPE      H16Y           29.6136399652       35.0512432284        2.8194848325  MEMB      190             0.0000000000
     23575       190  PMPE      H16Z           28.3943801563       35.2521016157        1.5075755336  MEMB      190             0.0000000000
     23576       191  POPE      N              22.8838414993       37.4937665014      -20.6519004715  MEMB      191             0.0000000000
     23577       191  POPE      HN1            22.0305745732       36.9097709225      -20.7636360728  MEMB      191             0.0000000000
     23578       191  POPE      HN2            22.8531568205       38.5148196120      -20.8471155568  MEMB      191             0.0000000000
     23579       191  POPE      HN3            23.6505280743       37.0260256159      -21.1763147131  MEMB      191             0.0000000000
     23580       191  POPE      C12            23.4469694036       37.4287680313      -19.2289535135  MEMB      191             0.0000000000
     23581       191  POPE      H12A           23.4157360253       36.4168820208      -18.7713159425  MEMB      191             0.0000000000
     23582       191  POPE      H12B           22.8615011612       38.1687687186      -18.6424836345  MEMB      191             0.0000000000
     23583       191  POPE      C11            24.9723833090       37.7375160672      -19.2558625400  MEMB      191             0.0000000000
     23584       191  POPE      H11A           25.5541856466       37.0968262001      -19.9525285520  MEMB      191             0.0000000000
     23585       191  POPE      H11B           25.4535143936       37.5571494616      -18.2708235640  MEMB      191             0.0000000000
     23586       191  POPE      P              25.5423342909       40.1743309679      -18.5488323260  MEMB      191             0.0000000000
     23587       191  POPE      O13            24.6575013179       40.0057191295      -17.3569461707  MEMB      191             0.0000000000
     23588       191  POPE      O14            25.5467492007       41.5319707392      -19.1475217247  MEMB      191             0.0000000000
     23589       191  POPE      O11            27.0328366410       39.7144947281      -18.1262236674  MEMB      191             0.0000000000
     23590       191  POPE      O12            25.1556464892       39.1319508163      -19.6837595979  MEMB      191             0.0000000000
     23591       191  POPE      C1             27.9281030054       39.3202436464      -19.1680007693  MEMB      191             0.0000000000
     23592       191  POPE      HA             28.0796933009       40.2398992587      -19.7726284441  MEMB      191             0.0000000000
     23593       191  POPE      HB             27.4438730284       38.4913234991      -19.7272268363  MEMB      191             0.0000000000
     23594       191  POPE      C2             29.1990518176       38.7634781286      -18.6024307407  MEMB      191             0.0000000000
     23595       191  POPE      HS             29.6918382081       38.2195529170      -19.4364738840  MEMB      191             0.0000000000
     23596       191  POPE      O21            28.9721672964       37.8405191853      -17.5002866762  MEMB      191             0.0000000000
     23597       191  POPE      C21            28.2836524115       36.6970530056      -17.7408250031  MEMB      191             0.0000000000
     23598       191  POPE      O22            28.0990581118       36.1871531039      -18.8194489782  MEMB      191             0.0000000000
     23599       191  POPE      C22            27.8852124737       35.9903852462      -16.4541892772  MEMB      191             0.0000000000
     23600       191  POPE      H2R            28.8311503983       35.6211918542      -16.0033923486  MEMB      191             0.0000000000
     23601       191  POPE      H2S            27.1605767029       35.1678920209      -16.6351004758  MEMB      191             0.0000000000
     23602       191  POPE      C3             30.1600265574       39.8567300734      -18.1455999179  MEMB      191             0.0000000000
     23603       191  POPE      HX             30.5981867157       40.3495848731      -19.0397087426  MEMB      191             0.0000000000
     23604       191  POPE      HY             31.0163982871       39.3675963189      -17.6340366133  MEMB      191             0.0000000000
     23605       191  POPE      O31            29.4870292184       40.8366919581      -17.3142939079  MEMB      191             0.0000000000
     23606       191  POPE      C31            29.5029135798       40.6017328144      -15.9934255382  MEMB      191             0.0000000000
     23607       191  POPE      O32            30.0020892289       39.6416280100      -15.4119067620  MEMB      191             0.0000000000
     23608       191  POPE      C32            28.7776619210       41.8034657804      -15.3484400072  MEMB      191             0.0000000000
     23609       191  POPE      H2X            28.1288767761       42.3117813308      -16.0934327452  MEMB      191             0.0000000000
     23610       191  POPE      H2Y            29.5503953337       42.5303092523      -15.0184353864  MEMB      191             0.0000000000
     23611       191  POPE      C23            27.1475610409       37.0210739840      -15.3871864488  MEMB      191             0.0000000000
     23612       191  POPE      H3R            26.2519723165       37.4868393947      -15.8511954310  MEMB      191             0.0000000000
     23613       191  POPE      H3S            27.7623583376       37.9450159702      -15.3354515386  MEMB      191             0.0000000000
     23614       191  POPE      C24            27.0109686718       36.4526809603      -14.0476816796  MEMB      191             0.0000000000
     23615       191  POPE      H4R            27.0724630754       35.3467276813      -14.1337479450  MEMB      191             0.0000000000
     23616       191  POPE      H4S            25.9422488685       36.5954743415      -13.7797851595  MEMB      191             0.0000000000
     23617       191  POPE      C25            27.9292206109       37.1183903713      -12.9313013541  MEMB      191             0.0000000000
     23618       191  POPE      H5R            27.5610250180       38.1665953267      -12.9356598307  MEMB      191             0.0000000000
     23619       191  POPE      H5S            28.9887765438       37.0339877894      -13.2546257374  MEMB      191             0.0000000000
     23620       191  POPE      C26            27.6515888345       36.6328083212      -11.5011477252  MEMB      191             0.0000000000
     23621       191  POPE      H6R            27.7117886825       35.5245331759      -11.5503734621  MEMB      191             0.0000000000
     23622       191  POPE      H6S            26.5977843833       36.9042275588      -11.2772083030  MEMB      191             0.0000000000
     23623       191  POPE      C27            28.6050772392       37.3213986882      -10.4546242782  MEMB      191             0.0000000000
     23624       191  POPE      H7R            29.6430582909       37.1458866753      -10.8097470230  MEMB      191             0.0000000000
     23625       191  POPE      H7S            28.3637079488       36.8252435320       -9.4903152973  MEMB      191             0.0000000000
     23626       191  POPE      C28            28.4147061560       38.8448525547      -10.2629156657  MEMB      191             0.0000000000
     23627       191  POPE      H8R            27.3414449519       39.0412187357      -10.4723710799  MEMB      191             0.0000000000
     23628       191  POPE      H8S            28.9209603366       39.1173092012      -11.2135968676  MEMB      191             0.0000000000
     23629       191  POPE      C29            28.9140405302       39.5211669093       -9.0749313051  MEMB      191             0.0000000000
     23630       191  POPE      H91            29.7844767481       40.1668191399       -9.2632770120  MEMB      191             0.0000000000
     23631       191  POPE      C210           28.5417846007       39.4324751790       -7.8082328057  MEMB      191             0.0000000000
     23632       191  POPE      H101           29.0252514823       40.0479270477       -7.0352649697  MEMB      191             0.0000000000
     23633       191  POPE      C211           27.4622237976       38.5234318908       -7.2640097761  MEMB      191             0.0000000000
     23634       191  POPE      H11R           27.9629586450       37.7373376633       -6.6593265634  MEMB      191             0.0000000000
     23635       191  POPE      H11S           26.9576725699       37.9155369448       -8.0451706999  MEMB      191             0.0000000000
     23636       191  POPE      C212           26.3975762938       39.3566218343       -6.5093168935  MEMB      191             0.0000000000
     23637       191  POPE      H12R           26.1589603414       40.2017403916       -7.1898741932  MEMB      191             0.0000000000
     23638       191  POPE      H12S           26.8926893693       39.7390214586       -5.5911915436  MEMB      191             0.0000000000
     23639       191  POPE      C213           25.0645618548       38.6249153600       -6.1139896810  MEMB      191             0.0000000000
     23640       191  POPE      H13R           24.4415703210       38.6054004709       -7.0336748909  MEMB      191             0.0000000000
     23641       191  POPE      H13S           24.5083363792       39.3699003854       -5.5057702567  MEMB      191             0.0000000000
     23642       191  POPE      C214           25.1422748721       37.4060403831       -5.2436091644  MEMB      191             0.0000000000
     23643       191  POPE      H14R           25.8561926374       37.7096143817       -4.4483201800  MEMB      191             0.0000000000
     23644       191  POPE      H14S           25.4926115686       36.6644118550       -5.9929913848  MEMB      191             0.0000000000
     23645       191  POPE      C215           23.8253483318       36.9117432640       -4.7933707379  MEMB      191             0.0000000000
     23646       191  POPE      H15R           23.2534683017       36.3885823458       -5.5893461103  MEMB      191             0.0000000000
     23647       191  POPE      H15S           23.2190608416       37.7266301681       -4.3431523692  MEMB      191             0.0000000000
     23648       191  POPE      C216           23.8574334770       35.7584981877       -3.7624902923  MEMB      191             0.0000000000
     23649       191  POPE      H16R           24.2248420107       34.8188185041       -4.2276073176  MEMB      191             0.0000000000
     23650       191  POPE      H16S           22.8044216988       35.7229672771       -3.4100356398  MEMB      191             0.0000000000
     23651       191  POPE      C217           24.8883984745       35.9871874644       -2.5377218162  MEMB      191             0.0000000000
     23652       191  POPE      H17R           25.9370718728       36.2932153647       -2.7400865355  MEMB      191             0.0000000000
     23653       191  POPE      H17S           25.0783476117       35.0441046537       -1.9819927316  MEMB      191             0.0000000000
     23654       191  POPE      C218           24.3509236773       37.0375356214       -1.5235581421  MEMB      191             0.0000000000
     23655       191  POPE      H18R           24.1189885246       38.0147965756       -1.9984139063  MEMB      191             0.0000000000
     23656       191  POPE      H18S           25.1130100766       37.2343009949       -0.7394490985  MEMB      191             0.0000000000
     23657       191  POPE      H18T           23.4637875648       36.6464407330       -0.9810129508  MEMB      191             0.0000000000
     23658       191  POPE      C33            27.9364468156       41.2459123881      -14.1812959773  MEMB      191             0.0000000000
     23659       191  POPE      H3X            28.4149194127       40.4810672572      -13.5329158325  MEMB      191             0.0000000000
     23660       191  POPE      H3Y            27.1001025904       40.7291501294      -14.6987958543  MEMB      191             0.0000000000
     23661       191  POPE      C34            27.3172355936       42.2847483748      -13.2253278858  MEMB      191             0.0000000000
     23662       191  POPE      H4X            26.3739681741       41.9280832828      -12.7591118759  MEMB      191             0.0000000000
     23663       191  POPE      H4Y            26.8306013496       43.0674938622      -13.8456649081  MEMB      191             0.0000000000
     23664       191  POPE      C35            28.2863690473       42.7312019380      -12.1910504425  MEMB      191             0.0000000000
     23665       191  POPE      H5X            29.2309009832       43.1039040777      -12.6419095753  MEMB      191             0.0000000000
     23666       191  POPE      H5Y            28.4960610743       41.8893563666      -11.4970429112  MEMB      191             0.0000000000
     23667       191  POPE      C36            27.7852587036       44.0113225032      -11.4703412759  MEMB      191             0.0000000000
     23668       191  POPE      H6X            27.9671499328       44.8634845017      -12.1595844391  MEMB      191             0.0000000000
     23669       191  POPE      H6Y            28.4578373923       44.1260204599      -10.5935269006  MEMB      191             0.0000000000
     23670       191  POPE      C37            26.3006790981       43.9582210160      -11.1493809755  MEMB      191             0.0000000000
     23671       191  POPE      H7X            26.0513196617       42.9407492979      -10.7793912709  MEMB      191             0.0000000000
     23672       191  POPE      H7Y            25.7306384069       44.3200839941      -12.0316671623  MEMB      191             0.0000000000
     23673       191  POPE      C38            25.8521100609       44.9173083428      -10.0913769603  MEMB      191             0.0000000000
     23674       191  POPE      H8X            26.1081440479       45.9226906754      -10.4888373061  MEMB      191             0.0000000000
     23675       191  POPE      H8Y            26.3279997142       44.8278306555       -9.0914546993  MEMB      191             0.0000000000
     23676       191  POPE      C39            24.3528932459       44.9900752404       -9.9187912777  MEMB      191             0.0000000000
     23677       191  POPE      H9X            23.7239701447       45.1415649995      -10.8220223328  MEMB      191             0.0000000000
     23678       191  POPE      H9Y            24.1814782634       45.9417262923       -9.3717090312  MEMB      191             0.0000000000
     23679       191  POPE      C310           23.7520668685       43.8529008517       -9.0454553944  MEMB      191             0.0000000000
     23680       191  POPE      H10X           23.9644947662       42.8517843744       -9.4778451104  MEMB      191             0.0000000000
     23681       191  POPE      H10Y           22.6465276673       43.9505910387       -8.9948519526  MEMB      191             0.0000000000
     23682       191  POPE      C311           24.0899498118       43.9397815720       -7.5236015338  MEMB      191             0.0000000000
     23683       191  POPE      H11X           24.6877425763       44.8508562773       -7.3070196544  MEMB      191             0.0000000000
     23684       191  POPE      H11Y           24.8415085761       43.1652120262       -7.2599312867  MEMB      191             0.0000000000
     23685       191  POPE      C312           22.8360623049       44.1499682558       -6.6651461592  MEMB      191             0.0000000000
     23686       191  POPE      H12X           22.1320047551       43.3170052864       -6.8767985238  MEMB      191             0.0000000000
     23687       191  POPE      H12Y           22.2065555509       45.0290791626       -6.9204998809  MEMB      191             0.0000000000
     23688       191  POPE      C313           23.2050285452       44.4094078766       -5.2194812405  MEMB      191             0.0000000000
     23689       191  POPE      H13X           22.2484922086       44.7802425362       -4.7930520665  MEMB      191             0.0000000000
     23690       191  POPE      H13Y           23.8480312661       45.3099990848       -5.1204647734  MEMB      191             0.0000000000
     23691       191  POPE      C314           23.8120574248       43.2317782218       -4.3584454607  MEMB      191             0.0000000000
     23692       191  POPE      H14X           24.6976759999       42.8455654109       -4.9069346085  MEMB      191             0.0000000000
     23693       191  POPE      H14Y           23.1525973827       42.3394880381       -4.3014225480  MEMB      191             0.0000000000
     23694       191  POPE      C315           24.2110761601       43.7120082681       -2.9404122506  MEMB      191             0.0000000000
     23695       191  POPE      H15X           23.4418459738       44.3859271507       -2.5063170563  MEMB      191             0.0000000000
     23696       191  POPE      H15Y           24.9113896327       44.5588280915       -3.1040540151  MEMB      191             0.0000000000
     23697       191  POPE      C316           24.7266275095       42.6938341091       -1.9271019751  MEMB      191             0.0000000000
     23698       191  POPE      H16X           24.9397530405       41.7056626845       -2.3879890205  MEMB      191             0.0000000000
     23699       191  POPE      H16Y           23.9603777120       42.4484338213       -1.1609691687  MEMB      191             0.0000000000
     23700       191  POPE      H16Z           25.5860831390       43.0890010039       -1.3444366700  MEMB      191             0.0000000000
     23701       192  PYPG      C13           -39.6224799030       26.6216214534      -20.3716019312  MEMB      192             0.0000000000
     23702       192  PYPG      H13A          -40.3964338334       26.4692138462      -21.1539625484  MEMB      192             0.0000000000
     23703       192  PYPG      H13B          -39.4793478858       25.8026743732      -19.6346080962  MEMB      192             0.0000000000
     23704       192  PYPG      OC3           -40.2097002627       27.7135642943      -19.6510235065  MEMB      192             0.0000000000
     23705       192  PYPG      HO3           -39.7150019646       28.5076869171      -19.8660651666  MEMB      192             0.0000000000
     23706       192  PYPG      C12           -38.2637324690       27.0426328066      -20.8968747186  MEMB      192             0.0000000000
     23707       192  PYPG      H12A          -38.3785595681       28.0623289022      -21.3325508024  MEMB      192             0.0000000000
     23708       192  PYPG      OC2           -37.8452773225       26.1620071431      -21.9406345670  MEMB      192             0.0000000000
     23709       192  PYPG      HO2           -36.9175962649       26.4395540436      -22.1052322994  MEMB      192             0.0000000000
     23710       192  PYPG      C11           -37.2180991152       27.1048630966      -19.7717466312  MEMB      192             0.0000000000
     23711       192  PYPG      H11A          -36.2509386218       27.4782197388      -20.1711540156  MEMB      192             0.0000000000
     23712       192  PYPG      H11B          -36.9180386114       26.1269441373      -19.3382040308  MEMB      192             0.0000000000
     23713       192  PYPG      P             -36.7079206192       28.1714249613      -17.4426103892  MEMB      192             0.0000000000
     23714       192  PYPG      O13           -37.1527123269       29.4294337570      -16.8037492872  MEMB      192             0.0000000000
     23715       192  PYPG      O14           -35.2677416223       27.9823815779      -17.7536316144  MEMB      192             0.0000000000
     23716       192  PYPG      O11           -37.2354742476       27.0279852347      -16.6010482474  MEMB      192             0.0000000000
     23717       192  PYPG      O12           -37.6353720292       27.9599314842      -18.7670791091  MEMB      192             0.0000000000
     23718       192  PYPG      C1            -38.5257980586       26.5362502763      -16.4158824536  MEMB      192             0.0000000000
     23719       192  PYPG      HA            -38.5918409021       25.5935938323      -17.0001407795  MEMB      192             0.0000000000
     23720       192  PYPG      HB            -39.2320694038       27.2931407379      -16.8191425112  MEMB      192             0.0000000000
     23721       192  PYPG      C2            -38.8573978910       26.2904548042      -14.8863069822  MEMB      192             0.0000000000
     23722       192  PYPG      HS            -39.8164051083       25.7319650154      -14.8341991052  MEMB      192             0.0000000000
     23723       192  PYPG      O21           -38.7342178428       27.4816362273      -14.1611495741  MEMB      192             0.0000000000
     23724       192  PYPG      C21           -39.8524840527       28.2984472252      -14.1168021417  MEMB      192             0.0000000000
     23725       192  PYPG      O22           -40.7825788265       28.2573855282      -14.8862863279  MEMB      192             0.0000000000
     23726       192  PYPG      C22           -39.5427752520       29.3990190894      -12.9675709099  MEMB      192             0.0000000000
     23727       192  PYPG      H2R           -39.8573027421       30.4068831574      -13.3134080130  MEMB      192             0.0000000000
     23728       192  PYPG      H2S           -38.4485406351       29.4070452302      -12.7754586113  MEMB      192             0.0000000000
     23729       192  PYPG      C3            -37.9180123414       25.1302318473      -14.2509704693  MEMB      192             0.0000000000
     23730       192  PYPG      HX            -38.1854199018       24.3211176579      -14.9638155363  MEMB      192             0.0000000000
     23731       192  PYPG      HY            -38.1472191872       24.8661390559      -13.1964371103  MEMB      192             0.0000000000
     23732       192  PYPG      O31           -36.5260045205       25.3700250721      -14.3026409268  MEMB      192             0.0000000000
     23733       192  PYPG      C31           -35.9270051267       25.9631409544      -13.2605318313  MEMB      192             0.0000000000
     23734       192  PYPG      O32           -36.3787622295       26.3612780233      -12.2141175448  MEMB      192             0.0000000000
     23735       192  PYPG      C32           -34.5205609708       26.4534769399      -13.7612727974  MEMB      192             0.0000000000
     23736       192  PYPG      H2X           -33.6722320020       25.7971804058      -13.4715597657  MEMB      192             0.0000000000
     23737       192  PYPG      H2Y           -34.6165726900       26.4852078992      -14.8676614862  MEMB      192             0.0000000000
     23738       192  PYPG      C23           -40.2396582257       29.0574280386      -11.6386827859  MEMB      192             0.0000000000
     23739       192  PYPG      H3R           -39.6678180501       28.3119258089      -11.0457694537  MEMB      192             0.0000000000
     23740       192  PYPG      H3S           -41.2732090933       28.6959772082      -11.8269555652  MEMB      192             0.0000000000
     23741       192  PYPG      C24           -40.4232621254       30.3555669078      -10.8574176014  MEMB      192             0.0000000000
     23742       192  PYPG      H4R           -40.8771743229       31.1152350259      -11.5291239363  MEMB      192             0.0000000000
     23743       192  PYPG      H4S           -39.4492897033       30.7519718148      -10.4988615946  MEMB      192             0.0000000000
     23744       192  PYPG      C25           -41.1572044427       30.1499811103       -9.5185674109  MEMB      192             0.0000000000
     23745       192  PYPG      H5R           -40.7150307570       29.2244031143       -9.0918250645  MEMB      192             0.0000000000
     23746       192  PYPG      H5S           -42.2018300746       29.8963119980       -9.7991562312  MEMB      192             0.0000000000
     23747       192  PYPG      C26           -41.1624021255       31.3972200262       -8.5952082244  MEMB      192             0.0000000000
     23748       192  PYPG      H6R           -41.6112301562       32.2930091600       -9.0752458913  MEMB      192             0.0000000000
     23749       192  PYPG      H6S           -40.0747425858       31.5786186839       -8.4595165132  MEMB      192             0.0000000000
     23750       192  PYPG      C27           -41.6256953297       31.3043786264       -7.1256407113  MEMB      192             0.0000000000
     23751       192  PYPG      H7R           -42.6869246588       30.9790708793       -7.1734781441  MEMB      192             0.0000000000
     23752       192  PYPG      H7S           -41.4684397325       32.2423959680       -6.5514321679  MEMB      192             0.0000000000
     23753       192  PYPG      C28           -40.9586122322       30.1718253614       -6.3393314021  MEMB      192             0.0000000000
     23754       192  PYPG      H8R           -39.8863887451       30.4551535823       -6.2731258511  MEMB      192             0.0000000000
     23755       192  PYPG      H8S           -41.0328221862       29.1946720496       -6.8627673665  MEMB      192             0.0000000000
     23756       192  PYPG      C29           -41.5010178366       29.9008734329       -4.9825870491  MEMB      192             0.0000000000
     23757       192  PYPG      H9R           -41.9818900650       30.7677300856       -4.5058047039  MEMB      192             0.0000000000
     23758       192  PYPG      C210          -41.6602363699       28.8550205391       -4.2519440846  MEMB      192             0.0000000000
     23759       192  PYPG      H10R          -42.1840283322       28.9289926427       -3.2874908992  MEMB      192             0.0000000000
     23760       192  PYPG      C211          -41.2802312390       27.4892947684       -4.7761566951  MEMB      192             0.0000000000
     23761       192  PYPG      H11R          -41.7589349964       27.2326177532       -5.7453214593  MEMB      192             0.0000000000
     23762       192  PYPG      H11S          -41.7229037103       26.7772858328       -4.0471812229  MEMB      192             0.0000000000
     23763       192  PYPG      C212          -39.7505662918       27.1093176153       -4.9274848255  MEMB      192             0.0000000000
     23764       192  PYPG      H12R          -39.4501385261       27.7939901319       -5.7492439675  MEMB      192             0.0000000000
     23765       192  PYPG      H12S          -39.6429725348       26.0582449415       -5.2709833413  MEMB      192             0.0000000000
     23766       192  PYPG      C213          -38.8084264542       27.3039188909       -3.6527732626  MEMB      192             0.0000000000
     23767       192  PYPG      H13R          -38.7942875644       28.3895112115       -3.4169539375  MEMB      192             0.0000000000
     23768       192  PYPG      H13S          -37.7661180631       27.0057725999       -3.8957187732  MEMB      192             0.0000000000
     23769       192  PYPG      C214          -39.2554820759       26.5014942976       -2.3956851468  MEMB      192             0.0000000000
     23770       192  PYPG      H14R          -40.2973357172       26.7987954319       -2.1497704102  MEMB      192             0.0000000000
     23771       192  PYPG      H14S          -39.1632223536       25.4159215860       -2.6132657582  MEMB      192             0.0000000000
     23772       192  PYPG      C215          -38.3829718127       26.7583343681       -1.1896893619  MEMB      192             0.0000000000
     23773       192  PYPG      H15R          -37.3330838376       26.8848281946       -1.5303584382  MEMB      192             0.0000000000
     23774       192  PYPG      H15S          -38.3287317860       25.8710638000       -0.5232579607  MEMB      192             0.0000000000
     23775       192  PYPG      C216          -38.7994817008       27.9768697466       -0.4057469595  MEMB      192             0.0000000000
     23776       192  PYPG      H16R          -39.9088444236       27.9398044517       -0.3581913816  MEMB      192             0.0000000000
     23777       192  PYPG      H16S          -38.4442297143       28.9416107241       -0.8269265213  MEMB      192             0.0000000000
     23778       192  PYPG      H16T          -38.5086892849       27.8743803355        0.6616121978  MEMB      192             0.0000000000
     23779       192  PYPG      C33           -34.2940825547       27.9387028536      -13.2888875801  MEMB      192             0.0000000000
     23780       192  PYPG      H3X           -35.2654996052       28.4646339867      -13.1702856323  MEMB      192             0.0000000000
     23781       192  PYPG      H3Y           -33.8095338180       28.5396795946      -14.0878621675  MEMB      192             0.0000000000
     23782       192  PYPG      C34           -33.4818566470       27.9955491081      -12.0685958912  MEMB      192             0.0000000000
     23783       192  PYPG      H4X           -32.7177595029       27.1984476804      -12.1915012231  MEMB      192             0.0000000000
     23784       192  PYPG      H4Y           -34.0381174213       27.8001722635      -11.1269362774  MEMB      192             0.0000000000
     23785       192  PYPG      C35           -32.8246164451       29.3794237353      -11.7802937423  MEMB      192             0.0000000000
     23786       192  PYPG      H5X           -31.9852195236       29.5338461121      -12.4915515534  MEMB      192             0.0000000000
     23787       192  PYPG      H5Y           -32.3319862871       29.3031727103      -10.7874081520  MEMB      192             0.0000000000
     23788       192  PYPG      C36           -33.7400638499       30.7037434170      -11.8441299971  MEMB      192             0.0000000000
     23789       192  PYPG      H6X           -34.3490410501       30.6507606963      -12.7718478411  MEMB      192             0.0000000000
     23790       192  PYPG      H6Y           -33.0135258169       31.5324498612      -11.7037397395  MEMB      192             0.0000000000
     23791       192  PYPG      C37           -34.7105684019       30.6000211448      -10.6089985120  MEMB      192             0.0000000000
     23792       192  PYPG      H7X           -35.3239035664       31.5243088096      -10.6709135546  MEMB      192             0.0000000000
     23793       192  PYPG      H7Y           -35.3628767483       29.7228919263      -10.8076417201  MEMB      192             0.0000000000
     23794       192  PYPG      C38           -34.0438368997       30.6331187043       -9.1924848755  MEMB      192             0.0000000000
     23795       192  PYPG      H8X           -33.1387109378       31.2745613375       -9.2526442652  MEMB      192             0.0000000000
     23796       192  PYPG      H8Y           -33.6597192792       29.6033356590       -9.0302458381  MEMB      192             0.0000000000
     23797       192  PYPG      C39           -34.9914302735       31.0682736590       -8.1539125715  MEMB      192             0.0000000000
     23798       192  PYPG      H9X           -35.2748885631       32.1424717372       -8.1623193845  MEMB      192             0.0000000000
     23799       192  PYPG      H9Y           -34.3811204480       31.0006274118       -7.2280252909  MEMB      192             0.0000000000
     23800       192  PYPG      C310          -36.2737235238       30.1848721794       -8.0285606347  MEMB      192             0.0000000000
     23801       192  PYPG      H10X          -35.9657851876       29.1616756462       -8.3328037659  MEMB      192             0.0000000000
     23802       192  PYPG      H10Y          -37.0092211636       30.5314404498       -8.7856962631  MEMB      192             0.0000000000
     23803       192  PYPG      C311          -36.8553125757       30.1657751418       -6.6383850183  MEMB      192             0.0000000000
     23804       192  PYPG      H11X          -36.0755846179       29.8878479808       -5.8973708059  MEMB      192             0.0000000000
     23805       192  PYPG      H11Y          -37.7258963947       29.4831622820       -6.5361870281  MEMB      192             0.0000000000
     23806       192  PYPG      C312          -37.4618550549       31.5448042051       -6.1699406988  MEMB      192             0.0000000000
     23807       192  PYPG      H12X          -36.6041786398       32.2337506927       -6.0148110396  MEMB      192             0.0000000000
     23808       192  PYPG      H12Y          -38.0900818438       31.9933515064       -6.9689756517  MEMB      192             0.0000000000
     23809       192  PYPG      C313          -37.9535584981       31.5014088826       -4.6937511500  MEMB      192             0.0000000000
     23810       192  PYPG      H13X          -38.2789280080       30.4714093129       -4.4338348198  MEMB      192             0.0000000000
     23811       192  PYPG      H13Y          -37.0628374701       31.7067825554       -4.0622774576  MEMB      192             0.0000000000
     23812       192  PYPG      C314          -38.8226383953       32.7225023825       -4.3504863961  MEMB      192             0.0000000000
     23813       192  PYPG      H14X          -38.1760786116       33.6119756471       -4.1919980662  MEMB      192             0.0000000000
     23814       192  PYPG      H14Y          -39.6429357385       32.8791327409       -5.0832207385  MEMB      192             0.0000000000
     23815       192  PYPG      C315          -39.6175812417       32.6192823304       -3.0033689880  MEMB      192             0.0000000000
     23816       192  PYPG      H15X          -39.8402139276       31.5321123469       -2.9502946837  MEMB      192             0.0000000000
     23817       192  PYPG      H15Y          -38.9378190170       32.7995208356       -2.1432763073  MEMB      192             0.0000000000
     23818       192  PYPG      C316          -40.8855072999       33.5388832232       -2.7521116265  MEMB      192             0.0000000000
     23819       192  PYPG      H16X          -41.5343363446       32.9960122563       -2.0319500942  MEMB      192             0.0000000000
     23820       192  PYPG      H16Y          -41.4902269174       33.5116148549       -3.6837182706  MEMB      192             0.0000000000
     23821       192  PYPG      H16Z          -40.6568583146       34.5741798162       -2.4201450644  MEMB      192             0.0000000000
     23822       193  QMPE      N              36.9437269612      -23.2195473465      -20.4660441887  MEMB      193             0.0000000000
     23823       193  QMPE      HN1            36.2805814855      -23.5524355394      -21.1947576829  MEMB      193             0.0000000000
     23824       193  QMPE      HN2            36.8229242384      -23.8425591007      -19.6421126926  MEMB      193             0.0000000000
     23825       193  QMPE      HN3            36.7484878638      -22.2189337650      -20.2604859721  MEMB      193             0.0000000000
     23826       193  QMPE      C12            38.3375922694      -23.5590879750      -20.9188310572  MEMB      193             0.0000000000
     23827       193  QMPE      H12A           38.7670495806      -22.8416068508      -21.6503421572  MEMB      193             0.0000000000
     23828       193  QMPE      H12B           38.4170491376      -24.6194456993      -21.2407768995  MEMB      193             0.0000000000
     23829       193  QMPE      C11            39.3859650459      -23.2557618439      -19.8003993941  MEMB      193             0.0000000000
     23830       193  QMPE      H11A           39.3429698317      -22.1838856282      -19.5113427249  MEMB      193             0.0000000000
     23831       193  QMPE      H11B           40.3943219130      -23.3736992442      -20.2516512895  MEMB      193             0.0000000000
     23832       193  QMPE      P              40.3997437658      -24.9737520713      -18.1657187962  MEMB      193             0.0000000000
     23833       193  QMPE      O13            41.1654047057      -24.0729036782      -17.2854528385  MEMB      193             0.0000000000
     23834       193  QMPE      O14            41.1226036077      -25.5869773232      -19.3157797758  MEMB      193             0.0000000000
     23835       193  QMPE      O11            39.6569948363      -26.1085100199      -17.3660425286  MEMB      193             0.0000000000
     23836       193  QMPE      O12            39.2008479848      -24.1003013324      -18.6817314226  MEMB      193             0.0000000000
     23837       193  QMPE      C1             38.5394081562      -26.7025526997      -18.0030995967  MEMB      193             0.0000000000
     23838       193  QMPE      HA             38.6953601808      -27.8025360122      -18.0091869664  MEMB      193             0.0000000000
     23839       193  QMPE      HB             38.2997761865      -26.3674771115      -19.0349047631  MEMB      193             0.0000000000
     23840       193  QMPE      C2             37.3048945350      -26.3456020152      -17.1307420196  MEMB      193             0.0000000000
     23841       193  QMPE      HS             36.4801329434      -26.5476618596      -17.8471646347  MEMB      193             0.0000000000
     23842       193  QMPE      O21            37.2935663160      -24.9896913872      -16.6857985204  MEMB      193             0.0000000000
     23843       193  QMPE      C21            36.0648079444      -24.4510070207      -16.3421683936  MEMB      193             0.0000000000
     23844       193  QMPE      O22            34.9718454450      -24.9373915650      -16.6662192871  MEMB      193             0.0000000000
     23845       193  QMPE      C22            36.3905228240      -23.1513487699      -15.6652315566  MEMB      193             0.0000000000
     23846       193  QMPE      H2R            35.4790803787      -22.5175568162      -15.6216224326  MEMB      193             0.0000000000
     23847       193  QMPE      H2S            37.2001374089      -22.5415761696      -16.1202287814  MEMB      193             0.0000000000
     23848       193  QMPE      C3             37.1455197342      -27.2511840121      -15.8239821310  MEMB      193             0.0000000000
     23849       193  QMPE      HX             37.3682394344      -28.2905729045      -16.1470734313  MEMB      193             0.0000000000
     23850       193  QMPE      HY             36.1172603883      -27.2137905885      -15.4049293116  MEMB      193             0.0000000000
     23851       193  QMPE      O31            38.0575148935      -26.7328741259      -14.8606279047  MEMB      193             0.0000000000
     23852       193  QMPE      C31            38.5470167872      -27.5736870186      -13.9805796473  MEMB      193             0.0000000000
     23853       193  QMPE      O32            38.5755650191      -28.8223123489      -13.9896908353  MEMB      193             0.0000000000
     23854       193  QMPE      C32            39.2722853133      -26.7869764374      -12.9227899395  MEMB      193             0.0000000000
     23855       193  QMPE      H2X            39.6411189704      -25.8735450813      -13.4365269666  MEMB      193             0.0000000000
     23856       193  QMPE      H2Y            38.5273790500      -26.4869574329      -12.1550504114  MEMB      193             0.0000000000
     23857       193  QMPE      C23            36.7174788126      -23.5069323356      -14.2352767500  MEMB      193             0.0000000000
     23858       193  QMPE      H3R            37.3256969390      -24.4366268376      -14.2275548965  MEMB      193             0.0000000000
     23859       193  QMPE      H3S            35.8298741161      -23.8623487536      -13.6694517599  MEMB      193             0.0000000000
     23860       193  QMPE      C24            37.3837399645      -22.4093959182      -13.3370704383  MEMB      193             0.0000000000
     23861       193  QMPE      H4R            36.6855958313      -21.5564246130      -13.1979461389  MEMB      193             0.0000000000
     23862       193  QMPE      H4S            38.3492639876      -22.0588395800      -13.7603843532  MEMB      193             0.0000000000
     23863       193  QMPE      C25            37.7297833413      -22.7892093873      -11.8635091269  MEMB      193             0.0000000000
     23864       193  QMPE      H5R            38.2699791016      -21.9387594844      -11.3952736909  MEMB      193             0.0000000000
     23865       193  QMPE      H5S            38.3489249522      -23.7002552957      -12.0083539220  MEMB      193             0.0000000000
     23866       193  QMPE      C26            36.4757863511      -23.2239696590      -10.9954181711  MEMB      193             0.0000000000
     23867       193  QMPE      H6R            36.4247090671      -24.3122754684      -10.7779266997  MEMB      193             0.0000000000
     23868       193  QMPE      H6S            35.5729635586      -22.9866239321      -11.5978291659  MEMB      193             0.0000000000
     23869       193  QMPE      C27            36.4386841467      -22.4919780104       -9.6399460702  MEMB      193             0.0000000000
     23870       193  QMPE      H7R            36.0675546791      -21.4545970028       -9.7828604816  MEMB      193             0.0000000000
     23871       193  QMPE      H7S            37.4719350420      -22.4043404012       -9.2411564075  MEMB      193             0.0000000000
     23872       193  QMPE      C28            35.4688622041      -23.0745292973       -8.5686599684  MEMB      193             0.0000000000
     23873       193  QMPE      H8R            35.4897862889      -22.2925843776       -7.7797081830  MEMB      193             0.0000000000
     23874       193  QMPE      H8S            35.8604504778      -23.9830649609       -8.0631480087  MEMB      193             0.0000000000
     23875       193  QMPE      C29            34.0900347734      -23.3936838080       -9.0745946812  MEMB      193             0.0000000000
     23876       193  QMPE      H9R            33.9214033340      -24.1968228589       -9.8234947689  MEMB      193             0.0000000000
     23877       193  QMPE      C217           33.2617242264      -22.1542863529       -9.3552140428  MEMB      193             0.0000000000
     23878       193  QMPE      H17R           33.7217825761      -21.2750884416       -8.9213409228  MEMB      193             0.0000000000
     23879       193  QMPE      H17S           32.6731656010      -22.2597280995      -10.2581929670  MEMB      193             0.0000000000
     23880       193  QMPE      C210           32.8863963705      -23.0903014206       -8.2464858918  MEMB      193             0.0000000000
     23881       193  QMPE      H10R           32.1201501291      -23.8524860810       -8.5039005880  MEMB      193             0.0000000000
     23882       193  QMPE      C211           32.9643717352      -22.5705691170       -6.7741205805  MEMB      193             0.0000000000
     23883       193  QMPE      H11R           33.1859903266      -21.4823242523       -6.8046046944  MEMB      193             0.0000000000
     23884       193  QMPE      H11S           31.9242456963      -22.7326328973       -6.4188817473  MEMB      193             0.0000000000
     23885       193  QMPE      C212           33.9269384380      -23.2905793174       -5.8120875934  MEMB      193             0.0000000000
     23886       193  QMPE      H12R           34.9240188439      -22.8349070801       -5.9924067138  MEMB      193             0.0000000000
     23887       193  QMPE      H12S           33.9375259394      -24.3861000214       -5.9965955848  MEMB      193             0.0000000000
     23888       193  QMPE      C213           33.5736568010      -22.9932109965       -4.3064542285  MEMB      193             0.0000000000
     23889       193  QMPE      H13R           32.4842603209      -23.1649759648       -4.1721664951  MEMB      193             0.0000000000
     23890       193  QMPE      H13S           33.6646811882      -21.8893284967       -4.2199731517  MEMB      193             0.0000000000
     23891       193  QMPE      C214           34.5816323948      -23.7003314065       -3.3526587234  MEMB      193             0.0000000000
     23892       193  QMPE      H14R           34.2014580065      -23.4237066497       -2.3460464841  MEMB      193             0.0000000000
     23893       193  QMPE      H14S           35.6291590036      -23.3352133831       -3.4134649775  MEMB      193             0.0000000000
     23894       193  QMPE      C215           34.5587384851      -25.2712369618       -3.4843092355  MEMB      193             0.0000000000
     23895       193  QMPE      H15R           35.2258343309      -25.5725601628       -2.6485411601  MEMB      193             0.0000000000
     23896       193  QMPE      H15S           34.9978654487      -25.4511177900       -4.4888647969  MEMB      193             0.0000000000
     23897       193  QMPE      C216           33.1809854543      -25.9330966282       -3.2116798504  MEMB      193             0.0000000000
     23898       193  QMPE      H16R           33.2653935231      -27.0369552572       -3.3049126556  MEMB      193             0.0000000000
     23899       193  QMPE      H16S           32.2880014187      -25.6964826578       -3.8288621527  MEMB      193             0.0000000000
     23900       193  QMPE      H16T           32.7101684008      -25.8182902172       -2.2119434809  MEMB      193             0.0000000000
     23901       193  QMPE      C33            40.4020844971      -27.6922022850      -12.3394843535  MEMB      193             0.0000000000
     23902       193  QMPE      H3X            41.3789415990      -27.5783050799      -12.8562999237  MEMB      193             0.0000000000
     23903       193  QMPE      H3Y            40.3013352371      -28.7911475320      -12.4678949605  MEMB      193             0.0000000000
     23904       193  QMPE      C34            40.6884435430      -27.4272176930      -10.8277893402  MEMB      193             0.0000000000
     23905       193  QMPE      H4X            41.1972536160      -28.3320233233      -10.4318593551  MEMB      193             0.0000000000
     23906       193  QMPE      H4Y            39.8266078616      -27.2602357790      -10.1468504258  MEMB      193             0.0000000000
     23907       193  QMPE      C35            41.5989097457      -26.2844589654      -10.6129525017  MEMB      193             0.0000000000
     23908       193  QMPE      H5X            41.1607509265      -25.3273645379      -10.9683511551  MEMB      193             0.0000000000
     23909       193  QMPE      H5Y            42.4139192217      -26.3683091490      -11.3633184123  MEMB      193             0.0000000000
     23910       193  QMPE      C36            42.2012650254      -26.0981900068       -9.2635657275  MEMB      193             0.0000000000
     23911       193  QMPE      H6X            43.1620992250      -25.5406380113       -9.2476107158  MEMB      193             0.0000000000
     23912       193  QMPE      H6Y            42.5960001281      -27.0491470347       -8.8462099379  MEMB      193             0.0000000000
     23913       193  QMPE      C37            41.2155757235      -25.4579724466       -8.2860335691  MEMB      193             0.0000000000
     23914       193  QMPE      H7X            40.2032691221      -25.8732474803       -8.4786547564  MEMB      193             0.0000000000
     23915       193  QMPE      H7Y            41.5736501283      -25.6984546746       -7.2621818243  MEMB      193             0.0000000000
     23916       193  QMPE      C38            41.1478382210      -23.8723726881       -8.5330385062  MEMB      193             0.0000000000
     23917       193  QMPE      H8X            42.1619446988      -23.5173876216       -8.2503822601  MEMB      193             0.0000000000
     23918       193  QMPE      H8Y            41.1497145867      -23.6493370376       -9.6214185384  MEMB      193             0.0000000000
     23919       193  QMPE      C39            39.8908031360      -23.2220832409       -8.0073510002  MEMB      193             0.0000000000
     23920       193  QMPE      H9X            38.9712301533      -23.6236181051       -8.4842958580  MEMB      193             0.0000000000
     23921       193  QMPE      H9Y            40.0057652871      -22.1451973908       -8.2551848758  MEMB      193             0.0000000000
     23922       193  QMPE      C310           39.8151637624      -23.1442738704       -6.4594960272  MEMB      193             0.0000000000
     23923       193  QMPE      H10X           40.7714506459      -22.8191416124       -5.9967596494  MEMB      193             0.0000000000
     23924       193  QMPE      H10Y           39.4302753411      -24.1069878643       -6.0602916863  MEMB      193             0.0000000000
     23925       193  QMPE      C311           38.8251389513      -22.0494276377       -5.9606009199  MEMB      193             0.0000000000
     23926       193  QMPE      H11X           37.8479993493      -22.4909871889       -6.2513655279  MEMB      193             0.0000000000
     23927       193  QMPE      H11Y           39.0013333171      -21.0338475149       -6.3751769316  MEMB      193             0.0000000000
     23928       193  QMPE      C312           38.8582017710      -21.9238184538       -4.3912743360  MEMB      193             0.0000000000
     23929       193  QMPE      H12X           39.8650974777      -21.4819211153       -4.2325019589  MEMB      193             0.0000000000
     23930       193  QMPE      H12Y           38.8894117724      -22.9285270015       -3.9180852911  MEMB      193             0.0000000000
     23931       193  QMPE      C313           37.6169464567      -21.1710299340       -3.8689274915  MEMB      193             0.0000000000
     23932       193  QMPE      H13X           37.6900198535      -20.1002381686       -4.1559576922  MEMB      193             0.0000000000
     23933       193  QMPE      H13Y           36.7515446995      -21.6624051699       -4.3628418400  MEMB      193             0.0000000000
     23934       193  QMPE      C314           37.6187291883      -21.2630806286       -2.3122758796  MEMB      193             0.0000000000
     23935       193  QMPE      H14X           37.7844020710      -22.3124154790       -1.9870531437  MEMB      193             0.0000000000
     23936       193  QMPE      H14Y           36.5637298969      -21.0414691452       -2.0436029319  MEMB      193             0.0000000000
     23937       193  QMPE      C315           38.4943942271      -20.2852099347       -1.5541596976  MEMB      193             0.0000000000
     23938       193  QMPE      H15X           38.3310443522      -20.1794169324       -0.4603380494  MEMB      193             0.0000000000
     23939       193  QMPE      H15Y           39.5727552393      -20.5377228373       -1.6418836922  MEMB      193             0.0000000000
     23940       193  QMPE      H15Z           38.2905951071      -19.2803512599       -1.9819985572  MEMB      193             0.0000000000
     23941       194  PMPE      N             -36.2953897017      -28.3340429252      -18.4044897775  MEMB      194             0.0000000000
     23942       194  PMPE      HN1           -37.0831145876      -29.0099782946      -18.3396756200  MEMB      194             0.0000000000
     23943       194  PMPE      HN2           -36.5449306325      -27.3568747170      -18.1505767752  MEMB      194             0.0000000000
     23944       194  PMPE      HN3           -35.9278132896      -28.1632566840      -19.3622578442  MEMB      194             0.0000000000
     23945       194  PMPE      C12           -35.2080851482      -28.8748134224      -17.5285496476  MEMB      194             0.0000000000
     23946       194  PMPE      H12A          -35.7406025381      -29.4288275230      -16.7261689799  MEMB      194             0.0000000000
     23947       194  PMPE      H12B          -34.6067233841      -28.0139948691      -17.1656771503  MEMB      194             0.0000000000
     23948       194  PMPE      C11           -34.2523147118      -29.7685025545      -18.2863619044  MEMB      194             0.0000000000
     23949       194  PMPE      H11A          -33.5259132052      -30.0518616347      -17.4949267918  MEMB      194             0.0000000000
     23950       194  PMPE      H11B          -33.8099912120      -29.3140599261      -19.1985859995  MEMB      194             0.0000000000
     23951       194  PMPE      P             -34.3789987112      -31.9975484576      -19.6418291782  MEMB      194             0.0000000000
     23952       194  PMPE      O13           -32.9215441375      -32.0430276691      -19.4205704994  MEMB      194             0.0000000000
     23953       194  PMPE      O14           -34.8135469001      -31.7266128600      -21.0356298755  MEMB      194             0.0000000000
     23954       194  PMPE      O11           -34.9847893657      -33.4022087576      -19.0410560806  MEMB      194             0.0000000000
     23955       194  PMPE      O12           -35.0296825325      -30.8954273675      -18.6415130338  MEMB      194             0.0000000000
     23956       194  PMPE      C1            -36.3924942968      -33.4018893803      -18.6530536062  MEMB      194             0.0000000000
     23957       194  PMPE      HA            -36.8655148118      -34.2582380612      -19.1795889062  MEMB      194             0.0000000000
     23958       194  PMPE      HB            -36.8855389457      -32.4839680354      -19.0386030481  MEMB      194             0.0000000000
     23959       194  PMPE      C2            -36.5797941184      -33.5036426365      -17.1027243236  MEMB      194             0.0000000000
     23960       194  PMPE      HS            -37.0417543238      -32.5766563845      -16.7007163272  MEMB      194             0.0000000000
     23961       194  PMPE      O21           -35.2759729158      -33.6849876529      -16.5101392312  MEMB      194             0.0000000000
     23962       194  PMPE      C21           -34.8163479936      -32.6574053750      -15.6970361532  MEMB      194             0.0000000000
     23963       194  PMPE      O22           -35.3805501080      -31.5554786900      -15.6337412305  MEMB      194             0.0000000000
     23964       194  PMPE      C22           -33.4444620821      -33.0412384903      -15.1407535299  MEMB      194             0.0000000000
     23965       194  PMPE      H2R           -32.6536211431      -32.3563748043      -15.5147232483  MEMB      194             0.0000000000
     23966       194  PMPE      H2S           -33.2615333197      -34.1093131278      -15.3858547452  MEMB      194             0.0000000000
     23967       194  PMPE      C3            -37.4665273142      -34.6875972739      -16.6488683641  MEMB      194             0.0000000000
     23968       194  PMPE      HX            -37.0123407097      -35.6219314615      -17.0426387151  MEMB      194             0.0000000000
     23969       194  PMPE      HY            -38.4780240469      -34.5779627747      -17.0951592543  MEMB      194             0.0000000000
     23970       194  PMPE      O31           -37.5487175348      -34.9097475233      -15.2599568673  MEMB      194             0.0000000000
     23971       194  PMPE      C31           -38.4546817570      -34.2287828155      -14.5689224546  MEMB      194             0.0000000000
     23972       194  PMPE      O32           -39.3870822329      -33.6444417177      -15.0611738517  MEMB      194             0.0000000000
     23973       194  PMPE      C32           -37.9587269433      -33.9999502634      -13.1203379729  MEMB      194             0.0000000000
     23974       194  PMPE      H2X           -36.8915685356      -33.6928205781      -13.1544783608  MEMB      194             0.0000000000
     23975       194  PMPE      H2Y           -38.0321899051      -34.9990673019      -12.6400371421  MEMB      194             0.0000000000
     23976       194  PMPE      C23           -33.4931084278      -32.9571669096      -13.6548318293  MEMB      194             0.0000000000
     23977       194  PMPE      H3R           -34.3103701600      -33.6474266674      -13.3549230529  MEMB      194             0.0000000000
     23978       194  PMPE      H3S           -33.7428100096      -31.9382117500      -13.2891812768  MEMB      194             0.0000000000
     23979       194  PMPE      C24           -32.1966922814      -33.4800644739      -13.0363837741  MEMB      194             0.0000000000
     23980       194  PMPE      H4R           -31.2858934282      -33.0426511281      -13.4983749777  MEMB      194             0.0000000000
     23981       194  PMPE      H4S           -32.2074487019      -34.5702598848      -13.2501112964  MEMB      194             0.0000000000
     23982       194  PMPE      C25           -31.9098355438      -33.2127267198      -11.5382074960  MEMB      194             0.0000000000
     23983       194  PMPE      H5R           -31.6417824700      -32.1418007094      -11.4133633604  MEMB      194             0.0000000000
     23984       194  PMPE      H5S           -31.0174108394      -33.8321307481      -11.3053175785  MEMB      194             0.0000000000
     23985       194  PMPE      C26           -33.1332513659      -33.5960944041      -10.7128650317  MEMB      194             0.0000000000
     23986       194  PMPE      H6R           -33.3134945009      -34.6877026648      -10.8139851405  MEMB      194             0.0000000000
     23987       194  PMPE      H6S           -33.9941403170      -32.8956339651      -10.7633244055  MEMB      194             0.0000000000
     23988       194  PMPE      C27           -32.8739069098      -33.5194673090       -9.1253131102  MEMB      194             0.0000000000
     23989       194  PMPE      H7R           -32.3282107433      -32.5604941156       -8.9952867504  MEMB      194             0.0000000000
     23990       194  PMPE      H7S           -32.1464884750      -34.3345001012       -8.9230653557  MEMB      194             0.0000000000
     23991       194  PMPE      C28           -34.0728145758      -33.6556601665       -8.1604519244  MEMB      194             0.0000000000
     23992       194  PMPE      H8R           -34.7757806597      -32.8135377650       -8.3364905392  MEMB      194             0.0000000000
     23993       194  PMPE      H8S           -33.6170927003      -33.6079871842       -7.1483420612  MEMB      194             0.0000000000
     23994       194  PMPE      C29           -34.7572599531      -35.0440746192       -8.1671175707  MEMB      194             0.0000000000
     23995       194  PMPE      H9R           -34.0441710898      -35.8773868283       -7.9898730257  MEMB      194             0.0000000000
     23996       194  PMPE      C217          -36.1151384638      -35.2796675063       -8.9372153937  MEMB      194             0.0000000000
     23997       194  PMPE      H17R          -36.0998417105      -36.2372720565       -9.4428325653  MEMB      194             0.0000000000
     23998       194  PMPE      H17S          -36.2501672114      -34.3555142569       -9.4854833292  MEMB      194             0.0000000000
     23999       194  PMPE      C210          -36.1245866912      -35.1741090978       -7.4495285149  MEMB      194             0.0000000000
     24000       194  PMPE      H10R          -36.2175488741      -36.1370481989       -6.9032442275  MEMB      194             0.0000000000
     24001       194  PMPE      C211          -36.7924818846      -33.9800020356       -6.8338207648  MEMB      194             0.0000000000
     24002       194  PMPE      H11R          -37.8879954440      -34.1619449708       -6.8664964368  MEMB      194             0.0000000000
     24003       194  PMPE      H11S          -36.6689495363      -33.0583825595       -7.4418324456  MEMB      194             0.0000000000
     24004       194  PMPE      C212          -36.1853083141      -33.6762089806       -5.4822143674  MEMB      194             0.0000000000
     24005       194  PMPE      H12R          -35.0930690225      -33.5092263141       -5.3662367824  MEMB      194             0.0000000000
     24006       194  PMPE      H12S          -36.2951745767      -34.6204621102       -4.9072036382  MEMB      194             0.0000000000
     24007       194  PMPE      C213          -36.9282579620      -32.6451399156       -4.6839008408  MEMB      194             0.0000000000
     24008       194  PMPE      H13R          -37.9049124109      -32.9995001350       -4.2903331154  MEMB      194             0.0000000000
     24009       194  PMPE      H13S          -37.1438736730      -31.7406262958       -5.2919193449  MEMB      194             0.0000000000
     24010       194  PMPE      C214          -36.1810857735      -32.0968287469       -3.4600749263  MEMB      194             0.0000000000
     24011       194  PMPE      H14R          -36.9975160531      -31.7515927432       -2.7903176314  MEMB      194             0.0000000000
     24012       194  PMPE      H14S          -35.4382245440      -31.3108212258       -3.7143766081  MEMB      194             0.0000000000
     24013       194  PMPE      C215          -35.4483931390      -33.1019362679       -2.6100116467  MEMB      194             0.0000000000
     24014       194  PMPE      H15R          -34.9580918551      -32.5575432198       -1.7748103592  MEMB      194             0.0000000000
     24015       194  PMPE      H15S          -34.6014455930      -33.5427770482       -3.1780448615  MEMB      194             0.0000000000
     24016       194  PMPE      C216          -36.3246664400      -34.2260277914       -2.0554139876  MEMB      194             0.0000000000
     24017       194  PMPE      H16R          -37.0390955593      -33.7601763186       -1.3434484832  MEMB      194             0.0000000000
     24018       194  PMPE      H16S          -36.8167989950      -34.8026220189       -2.8676132806  MEMB      194             0.0000000000
     24019       194  PMPE      H16T          -35.6651176747      -34.9773170520       -1.5707695523  MEMB      194             0.0000000000
     24020       194  PMPE      C33           -38.7148873848      -32.9569261071      -12.3282523454  MEMB      194             0.0000000000
     24021       194  PMPE      H3X           -39.7274428725      -33.3997512305      -12.2144162709  MEMB      194             0.0000000000
     24022       194  PMPE      H3Y           -38.7977417048      -32.0086022699      -12.9010855013  MEMB      194             0.0000000000
     24023       194  PMPE      C34           -38.0737734659      -32.7580992139      -10.9630549933  MEMB      194             0.0000000000
     24024       194  PMPE      H4X           -37.8594316732      -33.7475540405      -10.5054985767  MEMB      194             0.0000000000
     24025       194  PMPE      H4Y           -38.7666770309      -32.1883672999      -10.3076076615  MEMB      194             0.0000000000
     24026       194  PMPE      C35           -36.6972380940      -32.0263908739      -10.7566124683  MEMB      194             0.0000000000
     24027       194  PMPE      H5X           -36.0127313542      -32.4631922565      -11.5148844941  MEMB      194             0.0000000000
     24028       194  PMPE      H5Y           -36.2529548095      -32.2682890287       -9.7674623910  MEMB      194             0.0000000000
     24029       194  PMPE      C36           -36.7101674861      -30.5214250784      -10.9703936770  MEMB      194             0.0000000000
     24030       194  PMPE      H6X           -37.3958151333      -29.9486244709      -10.3100094433  MEMB      194             0.0000000000
     24031       194  PMPE      H6Y           -36.9022066694      -30.3503349946      -12.0512124770  MEMB      194             0.0000000000
     24032       194  PMPE      C37           -35.3161766434      -29.9357260100      -10.9150409700  MEMB      194             0.0000000000
     24033       194  PMPE      H7X           -35.1470192316      -29.1935831872      -11.7243189429  MEMB      194             0.0000000000
     24034       194  PMPE      H7Y           -34.5048291058      -30.5881345374      -11.3028539836  MEMB      194             0.0000000000
     24035       194  PMPE      C38           -35.0044456190      -29.2915010765       -9.5831085279  MEMB      194             0.0000000000
     24036       194  PMPE      H8X           -33.9676097839      -28.8927827730       -9.6008867767  MEMB      194             0.0000000000
     24037       194  PMPE      H8Y           -35.1251779028      -30.1030558998       -8.8340265041  MEMB      194             0.0000000000
     24038       194  PMPE      C39           -35.6747518703      -27.9289149436       -9.1411179343  MEMB      194             0.0000000000
     24039       194  PMPE      H9X           -36.7526556287      -28.0882528938       -8.9241944242  MEMB      194             0.0000000000
     24040       194  PMPE      H9Y           -35.7750352789      -27.1509954923       -9.9279513233  MEMB      194             0.0000000000
     24041       194  PMPE      C310          -35.1076950751      -27.3438258654       -7.8058125299  MEMB      194             0.0000000000
     24042       194  PMPE      H10X          -35.4942617898      -26.3436972333       -7.5148995122  MEMB      194             0.0000000000
     24043       194  PMPE      H10Y          -34.0292385208      -27.0793329733       -7.8418124084  MEMB      194             0.0000000000
     24044       194  PMPE      C311          -34.9933047377      -28.2412166021       -6.5512119000  MEMB      194             0.0000000000
     24045       194  PMPE      H11X          -34.5783784144      -27.6605360698       -5.6997618455  MEMB      194             0.0000000000
     24046       194  PMPE      H11Y          -34.2702679192      -29.0208293910       -6.8733022344  MEMB      194             0.0000000000
     24047       194  PMPE      C312          -36.3720008540      -28.8226812326       -6.2289666581  MEMB      194             0.0000000000
     24048       194  PMPE      H12X          -36.4072573312      -29.3916394935       -5.2753608374  MEMB      194             0.0000000000
     24049       194  PMPE      H12Y          -36.6262185544      -29.5271825008       -7.0495588410  MEMB      194             0.0000000000
     24050       194  PMPE      C313          -37.5242490847      -27.8369748337       -5.9270620543  MEMB      194             0.0000000000
     24051       194  PMPE      H13X          -38.4573386258      -28.4375084767       -5.8720759593  MEMB      194             0.0000000000
     24052       194  PMPE      H13Y          -37.6391410280      -27.0986877162       -6.7492865918  MEMB      194             0.0000000000
     24053       194  PMPE      C314          -37.3154074717      -26.9656268804       -4.6466790406  MEMB      194             0.0000000000
     24054       194  PMPE      H14X          -38.1948810835      -26.2886489357       -4.5962022376  MEMB      194             0.0000000000
     24055       194  PMPE      H14Y          -36.4110156450      -26.3368561918       -4.7917449406  MEMB      194             0.0000000000
     24056       194  PMPE      C315          -37.2409424871      -27.8393977163       -3.3522940805  MEMB      194             0.0000000000
     24057       194  PMPE      H15X          -37.0651017441      -27.2617227735       -2.4197208637  MEMB      194             0.0000000000
     24058       194  PMPE      H15Y          -36.4428430656      -28.5798374481       -3.5738959064  MEMB      194             0.0000000000
     24059       194  PMPE      C316          -38.5354506282      -28.5312446821       -3.1560464727  MEMB      194             0.0000000000
     24060       194  PMPE      H16X          -39.3714537235      -27.7998502770       -3.1780022598  MEMB      194             0.0000000000
     24061       194  PMPE      H16Y          -38.5970740745      -29.0426378983       -2.1716668968  MEMB      194             0.0000000000
     24062       194  PMPE      H16Z          -38.7996754583      -29.2247743348       -3.9828003907  MEMB      194             0.0000000000
     24063       195  POPE      N              37.1150722365      -33.3417460163      -21.1774019606  MEMB      195             0.0000000000
     24064       195  POPE      HN1            37.3110463109      -33.4063951490      -22.1967226096  MEMB      195             0.0000000000
     24065       195  POPE      HN2            37.8581085150      -33.8675418593      -20.6743752390  MEMB      195             0.0000000000
     24066       195  POPE      HN3            36.2131824519      -33.8161959757      -20.9698154483  MEMB      195             0.0000000000
     24067       195  POPE      C12            37.1014627187      -31.8512168284      -20.7563605144  MEMB      195             0.0000000000
     24068       195  POPE      H12A           36.2871090609      -31.3230952267      -21.2969495461  MEMB      195             0.0000000000
     24069       195  POPE      H12B           37.9863967851      -31.2955144626      -21.1337296036  MEMB      195             0.0000000000
     24070       195  POPE      C11            37.0248910878      -31.8220797848      -19.2561481769  MEMB      195             0.0000000000
     24071       195  POPE      H11A           37.2423038634      -30.7639061505      -18.9966848134  MEMB      195             0.0000000000
     24072       195  POPE      H11B           37.8340389584      -32.3951293706      -18.7549344542  MEMB      195             0.0000000000
     24073       195  POPE      P              34.7225193510      -31.2025905967      -18.1861260274  MEMB      195             0.0000000000
     24074       195  POPE      O13            33.4581997297      -31.9038460507      -17.8194006780  MEMB      195             0.0000000000
     24075       195  POPE      O14            34.6089884243      -30.1422706437      -19.1802484608  MEMB      195             0.0000000000
     24076       195  POPE      O11            35.3285036748      -30.6586713548      -16.8269720115  MEMB      195             0.0000000000
     24077       195  POPE      O12            35.7210851641      -32.2522810995      -18.7973421310  MEMB      195             0.0000000000
     24078       195  POPE      C1             35.8819635364      -31.5691202751      -15.8795979216  MEMB      195             0.0000000000
     24079       195  POPE      HA             36.7812223159      -31.1491381524      -15.3803288899  MEMB      195             0.0000000000
     24080       195  POPE      HB             36.0663436541      -32.5075415591      -16.4450097949  MEMB      195             0.0000000000
     24081       195  POPE      C2             34.8692082356      -31.8812199235      -14.7834542123  MEMB      195             0.0000000000
     24082       195  POPE      HS             34.1199182304      -32.6725623184      -14.9994692272  MEMB      195             0.0000000000
     24083       195  POPE      O21            34.2376871715      -30.6584162306      -14.3505868870  MEMB      195             0.0000000000
     24084       195  POPE      C21            33.1707281501      -30.6892591989      -13.5891660718  MEMB      195             0.0000000000
     24085       195  POPE      O22            32.5880638626      -31.7219735978      -13.2280499158  MEMB      195             0.0000000000
     24086       195  POPE      C22            32.7842865006      -29.3010128950      -13.1479193705  MEMB      195             0.0000000000
     24087       195  POPE      H2R            32.5545166675      -28.7784971509      -14.1010745263  MEMB      195             0.0000000000
     24088       195  POPE      H2S            33.6000779967      -28.7108719532      -12.6783038705  MEMB      195             0.0000000000
     24089       195  POPE      C3             35.7185338001      -32.5851890988      -13.5950661293  MEMB      195             0.0000000000
     24090       195  POPE      HX             36.3972934353      -33.3153587072      -14.0854318422  MEMB      195             0.0000000000
     24091       195  POPE      HY             35.0258994148      -33.0656186589      -12.8713490068  MEMB      195             0.0000000000
     24092       195  POPE      O31            36.5891705220      -31.5482806086      -13.0036215537  MEMB      195             0.0000000000
     24093       195  POPE      C31            36.9760262713      -31.7045022653      -11.8140148750  MEMB      195             0.0000000000
     24094       195  POPE      O32            36.5723254934      -32.5505178560      -11.0772788257  MEMB      195             0.0000000000
     24095       195  POPE      C32            38.1423185447      -30.8326620172      -11.6031043563  MEMB      195             0.0000000000
     24096       195  POPE      H2X            38.0250338023      -29.7515722825      -11.3754857711  MEMB      195             0.0000000000
     24097       195  POPE      H2Y            38.8013941508      -30.8473502644      -12.4973775465  MEMB      195             0.0000000000
     24098       195  POPE      C23            31.5897553750      -29.2297211831      -12.1865761997  MEMB      195             0.0000000000
     24099       195  POPE      H3R            30.6665543151      -29.7515740697      -12.5177709481  MEMB      195             0.0000000000
     24100       195  POPE      H3S            31.3586093965      -28.1621662071      -11.9835514905  MEMB      195             0.0000000000
     24101       195  POPE      C24            31.8809324686      -29.7685251409      -10.7526361002  MEMB      195             0.0000000000
     24102       195  POPE      H4R            32.2798692831      -30.7987134740      -10.8704589460  MEMB      195             0.0000000000
     24103       195  POPE      H4S            30.8715577067      -29.8201140367      -10.2913090410  MEMB      195             0.0000000000
     24104       195  POPE      C25            32.7752354048      -28.7984894164       -9.9669805193  MEMB      195             0.0000000000
     24105       195  POPE      H5R            32.2635745118      -27.8303362284       -9.7793532996  MEMB      195             0.0000000000
     24106       195  POPE      H5S            33.6413799993      -28.5213363582      -10.6051814888  MEMB      195             0.0000000000
     24107       195  POPE      C26            33.0809845012      -29.1509400344       -8.4515489461  MEMB      195             0.0000000000
     24108       195  POPE      H6R            33.5610820120      -28.3246785274       -7.8848749383  MEMB      195             0.0000000000
     24109       195  POPE      H6S            33.8979801961      -29.9026623252       -8.4096870493  MEMB      195             0.0000000000
     24110       195  POPE      C27            31.8850129439      -29.6380501301       -7.7241623193  MEMB      195             0.0000000000
     24111       195  POPE      H7R            31.4789669059      -30.5606583924       -8.1913253890  MEMB      195             0.0000000000
     24112       195  POPE      H7S            30.9973816185      -28.9895894231       -7.8851916221  MEMB      195             0.0000000000
     24113       195  POPE      C28            32.1674571168      -30.0037987183       -6.2682476303  MEMB      195             0.0000000000
     24114       195  POPE      H8R            32.5729306443      -29.0719611528       -5.8192584641  MEMB      195             0.0000000000
     24115       195  POPE      H8S            32.8774318712      -30.8577927107       -6.2374032993  MEMB      195             0.0000000000
     24116       195  POPE      C29            30.9410870719      -30.2487386539       -5.4185294124  MEMB      195             0.0000000000
     24117       195  POPE      H91            30.0690655310      -29.7349778052       -5.8493742531  MEMB      195             0.0000000000
     24118       195  POPE      C210           30.9072730852      -31.1425032526       -4.4441240993  MEMB      195             0.0000000000
     24119       195  POPE      H101           29.9866380850      -31.0472693299       -3.8496822474  MEMB      195             0.0000000000
     24120       195  POPE      C211           31.8847512373      -32.1560652542       -3.8434234827  MEMB      195             0.0000000000
     24121       195  POPE      H11R           32.6736855389      -32.4276622553       -4.5770029948  MEMB      195             0.0000000000
     24122       195  POPE      H11S           31.4240760485      -33.1441691032       -3.6295307400  MEMB      195             0.0000000000
     24123       195  POPE      C212           32.4580289667      -31.5261818880       -2.6120212161  MEMB      195             0.0000000000
     24124       195  POPE      H12R           31.7430490190      -31.5392555709       -1.7617557149  MEMB      195             0.0000000000
     24125       195  POPE      H12S           32.7369923311      -30.4709311110       -2.8192569966  MEMB      195             0.0000000000
     24126       195  POPE      C213           33.6315307793      -32.3087488826       -1.9904978039  MEMB      195             0.0000000000
     24127       195  POPE      H13R           33.3613470563      -33.3852793804       -1.9414664548  MEMB      195             0.0000000000
     24128       195  POPE      H13S           33.7357107574      -31.9691951564       -0.9378006528  MEMB      195             0.0000000000
     24129       195  POPE      C214           34.9637673939      -32.0766573299       -2.6587717308  MEMB      195             0.0000000000
     24130       195  POPE      H14R           34.7748896733      -31.9318153652       -3.7439756488  MEMB      195             0.0000000000
     24131       195  POPE      H14S           35.4527580768      -33.0697079190       -2.5635899985  MEMB      195             0.0000000000
     24132       195  POPE      C215           35.6397070867      -30.8946086595       -2.0677389382  MEMB      195             0.0000000000
     24133       195  POPE      H15R           36.0163930107      -31.1782625553       -1.0617721291  MEMB      195             0.0000000000
     24134       195  POPE      H15S           34.9764016528      -30.0044558791       -2.0233007580  MEMB      195             0.0000000000
     24135       195  POPE      C216           36.8854328619      -30.4645844237       -2.8642531110  MEMB      195             0.0000000000
     24136       195  POPE      H16R           37.3635265794      -29.6182542162       -2.3262264209  MEMB      195             0.0000000000
     24137       195  POPE      H16S           36.6022148353      -30.0197652454       -3.8421307802  MEMB      195             0.0000000000
     24138       195  POPE      C217           37.9327245942      -31.6559425732       -3.0964898744  MEMB      195             0.0000000000
     24139       195  POPE      H17R           38.6929692947      -31.2879977012       -3.8182693989  MEMB      195             0.0000000000
     24140       195  POPE      H17S           37.3624427539      -32.5190693328       -3.5015971026  MEMB      195             0.0000000000
     24141       195  POPE      C218           38.5582650426      -32.0988352476       -1.7490273004  MEMB      195             0.0000000000
     24142       195  POPE      H18R           39.5932521153      -32.4838718255       -1.8709674875  MEMB      195             0.0000000000
     24143       195  POPE      H18S           37.9184512422      -32.9327680608       -1.3891442382  MEMB      195             0.0000000000
     24144       195  POPE      H18T           38.5434676157      -31.3043591670       -0.9725545923  MEMB      195             0.0000000000
     24145       195  POPE      C33            38.9236485657      -31.4253247683      -10.4077176795  MEMB      195             0.0000000000
     24146       195  POPE      H3X            38.8285865681      -32.5298740756      -10.4802087474  MEMB      195             0.0000000000
     24147       195  POPE      H3Y            38.2924993064      -31.1982255943       -9.5220555607  MEMB      195             0.0000000000
     24148       195  POPE      C34            40.3247505492      -30.8603269473      -10.0351911142  MEMB      195             0.0000000000
     24149       195  POPE      H4X            40.9734654710      -31.1691409830      -10.8826132391  MEMB      195             0.0000000000
     24150       195  POPE      H4Y            40.7148024448      -31.3161153167       -9.1000767636  MEMB      195             0.0000000000
     24151       195  POPE      C35            40.2924001031      -29.3189825972      -10.0148896692  MEMB      195             0.0000000000
     24152       195  POPE      H5X            39.9365776898      -28.7540142284      -10.9028774998  MEMB      195             0.0000000000
     24153       195  POPE      H5Y            41.3341438005      -28.9384581674       -9.9493732783  MEMB      195             0.0000000000
     24154       195  POPE      C36            39.5617314376      -28.7741757641       -8.8303269679  MEMB      195             0.0000000000
     24155       195  POPE      H6X            39.8947391856      -29.2901005732       -7.9044504365  MEMB      195             0.0000000000
     24156       195  POPE      H6Y            38.4704958893      -28.8126510291       -9.0353777789  MEMB      195             0.0000000000
     24157       195  POPE      C37            39.7117146608      -27.2578408415       -8.6318823730  MEMB      195             0.0000000000
     24158       195  POPE      H7X            39.2099158068      -26.7804953681       -9.5005938605  MEMB      195             0.0000000000
     24159       195  POPE      H7Y            40.8139260914      -27.1232963452       -8.5951561246  MEMB      195             0.0000000000
     24160       195  POPE      C38            39.0827541085      -26.7555065304       -7.2739348181  MEMB      195             0.0000000000
     24161       195  POPE      H8X            39.5140491368      -25.7537408390       -7.0623435773  MEMB      195             0.0000000000
     24162       195  POPE      H8Y            39.5104166253      -27.4389170474       -6.5094899626  MEMB      195             0.0000000000
     24163       195  POPE      C39            37.5927956942      -26.8002274979       -7.1846594424  MEMB      195             0.0000000000
     24164       195  POPE      H9X            37.1872764969      -27.8345710573       -7.1817940657  MEMB      195             0.0000000000
     24165       195  POPE      H9Y            37.3723999491      -26.2974186751       -8.1505426467  MEMB      195             0.0000000000
     24166       195  POPE      C310           37.2255143347      -25.9996932125       -5.9605146354  MEMB      195             0.0000000000
     24167       195  POPE      H10X           37.7019227189      -24.9961625502       -5.9773148232  MEMB      195             0.0000000000
     24168       195  POPE      H10Y           37.5797981147      -26.5038681708       -5.0360627075  MEMB      195             0.0000000000
     24169       195  POPE      C311           35.7537540321      -25.6606827173       -5.8883772042  MEMB      195             0.0000000000
     24170       195  POPE      H11X           35.4333392198      -25.2587452325       -6.8733142157  MEMB      195             0.0000000000
     24171       195  POPE      H11Y           35.4961596016      -24.9636375322       -5.0624869305  MEMB      195             0.0000000000
     24172       195  POPE      C312           34.8806651629      -26.9252741174       -5.7033168736  MEMB      195             0.0000000000
     24173       195  POPE      H12X           35.0041704617      -27.7452567511       -6.4427062156  MEMB      195             0.0000000000
     24174       195  POPE      H12Y           33.8405925069      -26.5418998877       -5.7781101569  MEMB      195             0.0000000000
     24175       195  POPE      C313           34.9910064208      -27.5654449534       -4.3273155106  MEMB      195             0.0000000000
     24176       195  POPE      H13X           36.0256942852      -27.9698857623       -4.3142836501  MEMB      195             0.0000000000
     24177       195  POPE      H13Y           34.1954002248      -28.2796065817       -4.0251486255  MEMB      195             0.0000000000
     24178       195  POPE      C314           34.8073295014      -26.5207592692       -3.1546168178  MEMB      195             0.0000000000
     24179       195  POPE      H14X           33.9634842718      -25.8506662274       -3.4252111052  MEMB      195             0.0000000000
     24180       195  POPE      H14Y           35.7625584701      -25.9534654930       -3.1485333952  MEMB      195             0.0000000000
     24181       195  POPE      C315           34.6249317531      -27.0234661303       -1.6755944185  MEMB      195             0.0000000000
     24182       195  POPE      H15X           35.0952084102      -26.2385810467       -1.0454236213  MEMB      195             0.0000000000
     24183       195  POPE      H15Y           35.2785728691      -27.8565339949       -1.3393324702  MEMB      195             0.0000000000
     24184       195  POPE      C316           33.2532524458      -27.1841700212       -1.1240504569  MEMB      195             0.0000000000
     24185       195  POPE      H16X           33.3280000997      -27.4288968014       -0.0429210469  MEMB      195             0.0000000000
     24186       195  POPE      H16Y           32.6540793994      -27.8500259643       -1.7812793741  MEMB      195             0.0000000000
     24187       195  POPE      H16Z           32.6836265435      -26.2348799067       -1.0308016983  MEMB      195             0.0000000000
     24188       196  PVCL2     C3            -27.1663620583      -37.8061954732      -20.4041285784  MEMB      196             0.0000000000
     24189       196  PVCL2     HG31          -27.6949954986      -38.0563455857      -19.4595162548  MEMB      196             0.0000000000
     24190       196  PVCL2     HG32          -27.6978320262      -36.9118398342      -20.7939855550  MEMB      196             0.0000000000
     24191       196  PVCL2     P3            -28.3109757925      -40.0774068212      -21.3861050735  MEMB      196             0.0000000000
     24192       196  PVCL2     OP33          -27.8028766567      -41.3214237033      -20.8057444221  MEMB      196             0.0000000000
     24193       196  PVCL2     OP34          -28.6498091766      -40.1470204954      -22.7746352116  MEMB      196             0.0000000000
     24194       196  PVCL2     OP31          -27.2381471217      -38.9095290700      -21.2802823210  MEMB      196             0.0000000000
     24195       196  PVCL2     OP32          -29.5547162466      -39.6275779291      -20.6092895698  MEMB      196             0.0000000000
     24196       196  PVCL2     C31           -30.5084072261      -38.7091487624      -21.1227005410  MEMB      196             0.0000000000
     24197       196  PVCL2     H31J          -30.0878004578      -37.8054859189      -21.6134189373  MEMB      196             0.0000000000
     24198       196  PVCL2     H31K          -31.0653310313      -39.2455391450      -21.9204737101  MEMB      196             0.0000000000
     24199       196  PVCL2     C2            -25.6653371158      -37.6309995225      -20.0657023467  MEMB      196             0.0000000000
     24200       196  PVCL2     HG22          -25.0838480209      -37.4053694521      -20.9850946504  MEMB      196             0.0000000000
     24201       196  PVCL2     OG12          -25.4558292388      -36.4779262176      -19.1959398092  MEMB      196             0.0000000000
     24202       196  PVCL2     HO12          -25.8840281006      -35.7769709355      -19.6928378933  MEMB      196             0.0000000000
     24203       196  PVCL2     C1            -25.1914516026      -38.8713527008      -19.3857064911  MEMB      196             0.0000000000
     24204       196  PVCL2     HG11          -24.1152169368      -38.7138818439      -19.1593371536  MEMB      196             0.0000000000
     24205       196  PVCL2     HG12          -25.2773018002      -39.6437981771      -20.1796074206  MEMB      196             0.0000000000
     24206       196  PVCL2     P1            -25.8226088853      -40.5481357029      -17.5749131094  MEMB      196             0.0000000000
     24207       196  PVCL2     OP13          -27.1171799197      -40.9777649217      -16.9705731582  MEMB      196             0.0000000000
     24208       196  PVCL2     OP14          -25.1920493121      -41.4573111773      -18.5092655657  MEMB      196             0.0000000000
     24209       196  PVCL2     OP11          -26.0248050044      -39.1567707282      -18.2244795323  MEMB      196             0.0000000000
     24210       196  PVCL2     OP12          -24.7170650318      -40.2928824648      -16.4919593216  MEMB      196             0.0000000000
     24211       196  PVCL2     C11           -23.3827796237      -40.3919757093      -16.9510887929  MEMB      196             0.0000000000
     24212       196  PVCL2     H11J          -23.0608449702      -39.5954547127      -17.6555271301  MEMB      196             0.0000000000
     24213       196  PVCL2     H11K          -23.1762536722      -41.3785961613      -17.4182590031  MEMB      196             0.0000000000
     24214       196  PVCL2     C12           -22.5075699146      -40.3985037814      -15.6661257375  MEMB      196             0.0000000000
     24215       196  PVCL2     H12J          -21.7851533145      -41.2267082162      -15.8289525429  MEMB      196             0.0000000000
     24216       196  PVCL2     O12           -23.2847755459      -40.7225146111      -14.4866579040  MEMB      196             0.0000000000
     24217       196  PVCL2     CA1           -23.7434143196      -41.9299793179      -14.3971750167  MEMB      196             0.0000000000
     24218       196  PVCL2     OA1           -23.3198522977      -42.9296410294      -14.8746876360  MEMB      196             0.0000000000
     24219       196  PVCL2     CA2           -24.9634099274      -41.7829068033      -13.4458804923  MEMB      196             0.0000000000
     24220       196  PVCL2     H2A           -25.7872824434      -41.2755897288      -13.9919428904  MEMB      196             0.0000000000
     24221       196  PVCL2     H2B           -24.5534745077      -41.1874137422      -12.6022796010  MEMB      196             0.0000000000
     24222       196  PVCL2     C13           -21.8948065923      -39.0131584642      -15.3443457623  MEMB      196             0.0000000000
     24223       196  PVCL2     H13J          -22.7053832083      -38.3206151389      -15.0318232138  MEMB      196             0.0000000000
     24224       196  PVCL2     H13K          -21.3875668948      -38.6812129046      -16.2753888187  MEMB      196             0.0000000000
     24225       196  PVCL2     O13           -21.0200950639      -39.0763053731      -14.2174844727  MEMB      196             0.0000000000
     24226       196  PVCL2     CB1           -19.6872015519      -39.4770711791      -14.3544393465  MEMB      196             0.0000000000
     24227       196  PVCL2     OB1           -19.1831618291      -39.9413770932      -15.3646723996  MEMB      196             0.0000000000
     24228       196  PVCL2     CB2           -18.9810343142      -39.3724683881      -12.9730644827  MEMB      196             0.0000000000
     24229       196  PVCL2     H2D           -19.1388091328      -40.3413352935      -12.4527512133  MEMB      196             0.0000000000
     24230       196  PVCL2     H2E           -19.4846320189      -38.6669610049      -12.2781038875  MEMB      196             0.0000000000
     24231       196  PVCL2     C32           -31.4352971263      -38.2399349265      -19.8897651747  MEMB      196             0.0000000000
     24232       196  PVCL2     H32J          -32.0302860493      -37.4242313079      -20.3533782250  MEMB      196             0.0000000000
     24233       196  PVCL2     O32           -30.5510423209      -37.7986007316      -18.8251687040  MEMB      196             0.0000000000
     24234       196  PVCL2     CC1           -30.9899958015      -36.7829030660      -18.1489834643  MEMB      196             0.0000000000
     24235       196  PVCL2     OC1           -32.1449377422      -36.3071159782      -18.1719308720  MEMB      196             0.0000000000
     24236       196  PVCL2     CC2           -29.8955642037      -36.0570849712      -17.3542023612  MEMB      196             0.0000000000
     24237       196  PVCL2     H2R           -30.1874733379      -34.9855925295      -17.3860519898  MEMB      196             0.0000000000
     24238       196  PVCL2     H2S           -28.9342149562      -36.0795880962      -17.9106395894  MEMB      196             0.0000000000
     24239       196  PVCL2     C33           -32.3882465595      -39.3518844188      -19.3330244124  MEMB      196             0.0000000000
     24240       196  PVCL2     H33J          -33.3852154215      -38.9683875490      -19.0275684028  MEMB      196             0.0000000000
     24241       196  PVCL2     H33K          -32.6964794290      -40.0085489441      -20.1745142065  MEMB      196             0.0000000000
     24242       196  PVCL2     O33           -31.6817798925      -40.2619123656      -18.4185256867  MEMB      196             0.0000000000
     24243       196  PVCL2     CD1           -31.9393888809      -40.1617258675      -17.0865371073  MEMB      196             0.0000000000
     24244       196  PVCL2     OD1           -32.7095900435      -39.3452264580      -16.6062741718  MEMB      196             0.0000000000
     24245       196  PVCL2     CD2           -31.0679181997      -41.1774837399      -16.2303317959  MEMB      196             0.0000000000
     24246       196  PVCL2     H2X           -30.2907426058      -41.7008707585      -16.8273117094  MEMB      196             0.0000000000
     24247       196  PVCL2     H2Y           -31.7130904047      -42.0253874402      -15.9154769754  MEMB      196             0.0000000000
     24248       196  PVCL2     CA3           -25.4972347850      -43.1535864024      -13.0558128982  MEMB      196             0.0000000000
     24249       196  PVCL2     H3A           -25.7518535011      -43.7206974355      -13.9766143870  MEMB      196             0.0000000000
     24250       196  PVCL2     H3B           -26.4166733065      -42.9922974855      -12.4533680230  MEMB      196             0.0000000000
     24251       196  PVCL2     CA4           -24.6137695016      -43.9997078715      -12.0418159166  MEMB      196             0.0000000000
     24252       196  PVCL2     H4A           -23.5853272451      -44.2314799928      -12.3924002123  MEMB      196             0.0000000000
     24253       196  PVCL2     H4B           -25.1780153205      -44.9269828814      -11.8049433096  MEMB      196             0.0000000000
     24254       196  PVCL2     CA5           -24.2757384824      -43.4239888775      -10.6495488827  MEMB      196             0.0000000000
     24255       196  PVCL2     H5A           -25.1680188729      -42.7843722811      -10.4791162541  MEMB      196             0.0000000000
     24256       196  PVCL2     H5B           -23.4461536437      -42.6938202738      -10.7634078990  MEMB      196             0.0000000000
     24257       196  PVCL2     CA6           -23.9790498699      -44.4454425629       -9.5415563740  MEMB      196             0.0000000000
     24258       196  PVCL2     H6A           -23.1663316174      -45.1553900696       -9.8057238976  MEMB      196             0.0000000000
     24259       196  PVCL2     H6B           -24.9134238205      -44.9400097070       -9.1999871514  MEMB      196             0.0000000000
     24260       196  PVCL2     CA7           -23.4015464688      -43.7431153172       -8.3318635143  MEMB      196             0.0000000000
     24261       196  PVCL2     H7A           -22.6402010360      -42.9986476183       -8.6487897895  MEMB      196             0.0000000000
     24262       196  PVCL2     H7B           -22.9799360979      -44.5227286770       -7.6619613082  MEMB      196             0.0000000000
     24263       196  PVCL2     CA8           -24.5406148648      -43.0213320815       -7.5418772183  MEMB      196             0.0000000000
     24264       196  PVCL2     H8A           -25.2018596416      -43.8834427969       -7.3098392957  MEMB      196             0.0000000000
     24265       196  PVCL2     H8B           -25.0334614243      -42.3058746428       -8.2343685704  MEMB      196             0.0000000000
     24266       196  PVCL2     CA9           -23.9884959000      -42.2692152826       -6.2949739653  MEMB      196             0.0000000000
     24267       196  PVCL2     H9A           -23.1595553659      -42.8705195651       -5.8641470544  MEMB      196             0.0000000000
     24268       196  PVCL2     H9B           -24.7199090335      -42.1602673850       -5.4658263951  MEMB      196             0.0000000000
     24269       196  PVCL2     CA10          -23.4563482100      -40.8649686743       -6.5585028024  MEMB      196             0.0000000000
     24270       196  PVCL2     H10A          -22.7514148445      -40.8157987274       -7.4158079184  MEMB      196             0.0000000000
     24271       196  PVCL2     H10B          -23.0016516242      -40.4543389132       -5.6317049183  MEMB      196             0.0000000000
     24272       196  PVCL2     CA11          -24.5861220680      -39.9946026298       -6.9427334450  MEMB      196             0.0000000000
     24273       196  PVCL2     H11A          -24.8239631347      -40.0037217230       -8.0166743578  MEMB      196             0.0000000000
     24274       196  PVCL2     CA12          -25.3064037175      -39.1615487309       -6.1214645041  MEMB      196             0.0000000000
     24275       196  PVCL2     H12A          -26.1462665408      -38.5933812240       -6.5478639052  MEMB      196             0.0000000000
     24276       196  PVCL2     CA13          -25.1446670528      -38.9199815502       -4.5986596939  MEMB      196             0.0000000000
     24277       196  PVCL2     H13A          -24.1688549364      -39.3115837499       -4.2398296059  MEMB      196             0.0000000000
     24278       196  PVCL2     H13B          -25.9680384341      -39.3092581261       -3.9623859238  MEMB      196             0.0000000000
     24279       196  PVCL2     CA14          -24.9578221601      -37.3854355152       -4.2248850759  MEMB      196             0.0000000000
     24280       196  PVCL2     H14A          -25.8261420776      -36.8344896252       -4.6453598413  MEMB      196             0.0000000000
     24281       196  PVCL2     H14B          -24.0376726857      -37.1255130418       -4.7906465969  MEMB      196             0.0000000000
     24282       196  PVCL2     CA15          -24.7369666293      -36.9978353637       -2.7684433579  MEMB      196             0.0000000000
     24283       196  PVCL2     H15A          -25.6651797400      -37.1991761262       -2.1920731962  MEMB      196             0.0000000000
     24284       196  PVCL2     H15B          -24.6628719451      -35.9093858088       -2.5584251247  MEMB      196             0.0000000000
     24285       196  PVCL2     CA16          -23.6658770566      -37.8219118466       -1.9869716333  MEMB      196             0.0000000000
     24286       196  PVCL2     H16A          -23.9881150125      -38.8565592669       -1.7420462225  MEMB      196             0.0000000000
     24287       196  PVCL2     H16B          -23.4491632147      -37.2995103764       -1.0307022117  MEMB      196             0.0000000000
     24288       196  PVCL2     CA17          -22.2865346286      -37.8804937955       -2.7068085291  MEMB      196             0.0000000000
     24289       196  PVCL2     H17A          -22.3628708680      -38.3161021812       -3.7259941492  MEMB      196             0.0000000000
     24290       196  PVCL2     H17B          -21.6332182718      -38.6591205389       -2.2582110030  MEMB      196             0.0000000000
     24291       196  PVCL2     CA18          -21.6768709204      -36.4589395429       -2.8229459413  MEMB      196             0.0000000000
     24292       196  PVCL2     H18A          -21.5616424695      -35.8332910575       -1.9121168100  MEMB      196             0.0000000000
     24293       196  PVCL2     H18B          -22.3615079242      -35.9126465909       -3.5064349723  MEMB      196             0.0000000000
     24294       196  PVCL2     H18C          -20.7618625174      -36.5327437347       -3.4487516507  MEMB      196             0.0000000000
     24295       196  PVCL2     CB3           -17.4363861252      -39.1919347762      -12.9899665586  MEMB      196             0.0000000000
     24296       196  PVCL2     H3D           -17.2194425100      -38.4178509020      -13.7568112909  MEMB      196             0.0000000000
     24297       196  PVCL2     H3E           -16.9501613118      -40.1389591863      -13.3078515382  MEMB      196             0.0000000000
     24298       196  PVCL2     CB4           -17.0143155159      -38.7726935747      -11.6126215182  MEMB      196             0.0000000000
     24299       196  PVCL2     H4D           -17.7077376326      -38.0239296034      -11.1734863972  MEMB      196             0.0000000000
     24300       196  PVCL2     H4E           -15.9971339139      -38.3280240946      -11.6565697047  MEMB      196             0.0000000000
     24301       196  PVCL2     CB5           -17.1245146558      -39.8819363794      -10.5289016933  MEMB      196             0.0000000000
     24302       196  PVCL2     H5D           -16.3194315113      -40.5904938875      -10.8189162428  MEMB      196             0.0000000000
     24303       196  PVCL2     H5E           -18.1092931803      -40.3889583090      -10.6152757413  MEMB      196             0.0000000000
     24304       196  PVCL2     CB6           -16.8797550761      -39.4948199304       -9.0397541733  MEMB      196             0.0000000000
     24305       196  PVCL2     H6D           -15.8895043710      -38.9923763143       -9.0040587103  MEMB      196             0.0000000000
     24306       196  PVCL2     H6E           -16.8326210290      -40.4390679352       -8.4562348027  MEMB      196             0.0000000000
     24307       196  PVCL2     CB7           -17.9960893956      -38.6005974563       -8.4131518081  MEMB      196             0.0000000000
     24308       196  PVCL2     H7D           -18.9727915637      -38.9418545317       -8.8180196537  MEMB      196             0.0000000000
     24309       196  PVCL2     H7E           -17.9656176853      -37.5447567225       -8.7575246552  MEMB      196             0.0000000000
     24310       196  PVCL2     CB8           -18.0588377633      -38.4809525623       -6.8391783422  MEMB      196             0.0000000000
     24311       196  PVCL2     H8D           -18.7904112736      -37.6525657352       -6.7256165194  MEMB      196             0.0000000000
     24312       196  PVCL2     H8E           -17.0824380152      -38.2108125512       -6.3831207326  MEMB      196             0.0000000000
     24313       196  PVCL2     CB9           -18.5992620476      -39.7553430686       -6.1325580144  MEMB      196             0.0000000000
     24314       196  PVCL2     H9D           -17.9691745227      -40.6535198329       -6.3074541192  MEMB      196             0.0000000000
     24315       196  PVCL2     H9E           -19.5694208679      -40.0485277774       -6.5877016892  MEMB      196             0.0000000000
     24316       196  PVCL2     CB10          -18.7394307109      -39.5797886944       -4.6083666717  MEMB      196             0.0000000000
     24317       196  PVCL2     H10D          -19.1669920281      -38.6203065150       -4.2465575537  MEMB      196             0.0000000000
     24318       196  PVCL2     H10E          -17.6999664893      -39.5657180821       -4.2164016630  MEMB      196             0.0000000000
     24319       196  PVCL2     CB11          -19.3321616759      -40.9406261176       -4.0335050434  MEMB      196             0.0000000000
     24320       196  PVCL2     H11D          -18.6584794928      -41.7862390915       -4.2892633838  MEMB      196             0.0000000000
     24321       196  PVCL2     H11E          -20.3083563675      -41.0947172350       -4.5410690962  MEMB      196             0.0000000000
     24322       196  PVCL2     CB12          -19.3745932086      -40.9169167452       -2.5011965008  MEMB      196             0.0000000000
     24323       196  PVCL2     H12D          -20.2320648929      -40.3008757435       -2.1554264204  MEMB      196             0.0000000000
     24324       196  PVCL2     H12E          -18.4526361088      -40.4880769482       -2.0535197707  MEMB      196             0.0000000000
     24325       196  PVCL2     CB13          -19.6633322455      -42.3084872719       -1.7544414868  MEMB      196             0.0000000000
     24326       196  PVCL2     H13D          -20.4611317625      -42.7626194316       -2.3802208078  MEMB      196             0.0000000000
     24327       196  PVCL2     H13E          -19.9866266618      -42.2298821891       -0.6944302215  MEMB      196             0.0000000000
     24328       196  PVCL2     CB14          -18.4476937529      -43.2616254838       -1.6402456290  MEMB      196             0.0000000000
     24329       196  PVCL2     H14D          -17.6760730855      -42.9568410448       -0.9013081636  MEMB      196             0.0000000000
     24330       196  PVCL2     H14E          -17.8865920376      -43.4467505097       -2.5811051392  MEMB      196             0.0000000000
     24331       196  PVCL2     CB15          -19.0471535313      -44.6837719650       -1.2749001307  MEMB      196             0.0000000000
     24332       196  PVCL2     H15D          -18.4352904458      -45.5187139313       -1.6784050258  MEMB      196             0.0000000000
     24333       196  PVCL2     H15E          -20.0575710900      -44.8390939889       -1.7099335585  MEMB      196             0.0000000000
     24334       196  PVCL2     CB16          -19.2037642821      -44.9416205535        0.1758578389  MEMB      196             0.0000000000
     24335       196  PVCL2     H16D          -19.8398704664      -44.1158152092        0.5602222273  MEMB      196             0.0000000000
     24336       196  PVCL2     H16E          -18.2101065238      -44.9788623550        0.6714177187  MEMB      196             0.0000000000
     24337       196  PVCL2     H16F          -19.7990677167      -45.8322247372        0.4704064444  MEMB      196             0.0000000000
     24338       196  PVCL2     CC3           -29.8768098513      -36.6297984905      -15.9187748162  MEMB      196             0.0000000000
     24339       196  PVCL2     H3R           -30.1280771265      -37.7106387333      -15.8642753491  MEMB      196             0.0000000000
     24340       196  PVCL2     H3S           -30.5466569758      -35.8607174899      -15.4781619582  MEMB      196             0.0000000000
     24341       196  PVCL2     CC4           -28.5372552891      -36.3413665100      -15.1125707101  MEMB      196             0.0000000000
     24342       196  PVCL2     H4R           -28.7435607179      -36.7243971495      -14.0902955259  MEMB      196             0.0000000000
     24343       196  PVCL2     H4S           -28.3922547478      -35.2403188217      -15.0811029793  MEMB      196             0.0000000000
     24344       196  PVCL2     CC5           -27.4033236915      -37.1418504782      -15.7291517272  MEMB      196             0.0000000000
     24345       196  PVCL2     H5R           -27.3042594173      -36.6552426368      -16.7229928116  MEMB      196             0.0000000000
     24346       196  PVCL2     H5S           -27.6964333466      -38.2134774392      -15.7340023225  MEMB      196             0.0000000000
     24347       196  PVCL2     CC6           -26.0167906619      -37.0864520533      -14.9589216859  MEMB      196             0.0000000000
     24348       196  PVCL2     H6R           -25.5366316318      -36.1040914813      -15.1557359188  MEMB      196             0.0000000000
     24349       196  PVCL2     H6S           -25.3622372260      -37.8381875593      -15.4496095653  MEMB      196             0.0000000000
     24350       196  PVCL2     CC7           -26.0980223770      -37.3749784759      -13.4171485824  MEMB      196             0.0000000000
     24351       196  PVCL2     H7R           -26.7166195491      -38.2888035227      -13.2883765205  MEMB      196             0.0000000000
     24352       196  PVCL2     H7S           -26.5975028325      -36.4736571024      -13.0018658520  MEMB      196             0.0000000000
     24353       196  PVCL2     CC8           -24.7577680951      -37.7108342841      -12.8765449489  MEMB      196             0.0000000000
     24354       196  PVCL2     H8R           -24.0557934882      -36.8887067971      -13.1327846028  MEMB      196             0.0000000000
     24355       196  PVCL2     H8S           -24.2583228323      -38.6177922296      -13.2794131381  MEMB      196             0.0000000000
     24356       196  PVCL2     CC9           -24.7696459642      -37.9583017177      -11.3380006161  MEMB      196             0.0000000000
     24357       196  PVCL2     H9R           -25.5448905314      -38.7452695762      -11.2196858841  MEMB      196             0.0000000000
     24358       196  PVCL2     H9S           -25.1380328659      -37.0035072804      -10.9055893669  MEMB      196             0.0000000000
     24359       196  PVCL2     CC10          -23.4331469933      -38.5537804832      -10.7214785713  MEMB      196             0.0000000000
     24360       196  PVCL2     H10R          -23.2873602486      -39.5352250601      -11.2213125239  MEMB      196             0.0000000000
     24361       196  PVCL2     H10S          -23.5469173231      -38.6923655130       -9.6250423017  MEMB      196             0.0000000000
     24362       196  PVCL2     CC11          -22.1632852437      -37.6231976817      -10.7753266104  MEMB      196             0.0000000000
     24363       196  PVCL2     H11R          -21.6753232749      -37.5088410301      -11.7545187535  MEMB      196             0.0000000000
     24364       196  PVCL2     CC12          -21.5373943219      -37.0379447122       -9.6747562350  MEMB      196             0.0000000000
     24365       196  PVCL2     H12R          -20.5647537122      -36.5508542169       -9.8381990543  MEMB      196             0.0000000000
     24366       196  PVCL2     CC13          -21.7983077138      -37.1302656662       -8.1989746830  MEMB      196             0.0000000000
     24367       196  PVCL2     H13R          -20.9455561146      -37.5154793796       -7.6000210121  MEMB      196             0.0000000000
     24368       196  PVCL2     H13S          -22.5356854210      -37.9254327655       -7.9575114476  MEMB      196             0.0000000000
     24369       196  PVCL2     CC14          -22.1398717175      -35.8612631225       -7.4494847901  MEMB      196             0.0000000000
     24370       196  PVCL2     H14R          -22.5758401195      -36.1745439887       -6.4768040016  MEMB      196             0.0000000000
     24371       196  PVCL2     H14S          -22.9956048924      -35.3116095975       -7.8966119355  MEMB      196             0.0000000000
     24372       196  PVCL2     CC15          -20.9290806815      -34.9031726472       -7.2236609518  MEMB      196             0.0000000000
     24373       196  PVCL2     H15R          -20.7388977967      -34.1981661914       -8.0609884914  MEMB      196             0.0000000000
     24374       196  PVCL2     H15S          -20.0027839981      -35.5140664030       -7.2793757611  MEMB      196             0.0000000000
     24375       196  PVCL2     CC16          -21.1909041425      -34.1071732341       -5.9143130442  MEMB      196             0.0000000000
     24376       196  PVCL2     H16R          -21.4915191949      -34.8413699817       -5.1365550741  MEMB      196             0.0000000000
     24377       196  PVCL2     H16S          -22.1042525520      -33.5011475309       -6.0955535992  MEMB      196             0.0000000000
     24378       196  PVCL2     CC17          -19.9833586186      -33.3884476162       -5.4679192240  MEMB      196             0.0000000000
     24379       196  PVCL2     H17R          -20.3524403004      -32.8035434847       -4.5984437110  MEMB      196             0.0000000000
     24380       196  PVCL2     H17S          -19.6270182588      -32.6044060987       -6.1697894924  MEMB      196             0.0000000000
     24381       196  PVCL2     CC18          -18.7207393305      -34.1749425090       -5.0166523117  MEMB      196             0.0000000000
     24382       196  PVCL2     H18R          -17.9677285186      -33.4130465083       -4.7220191521  MEMB      196             0.0000000000
     24383       196  PVCL2     H18S          -18.3648092741      -34.8313086512       -5.8393427314  MEMB      196             0.0000000000
     24384       196  PVCL2     H18T          -18.8941097131      -34.9285434088       -4.2189377779  MEMB      196             0.0000000000
     24385       196  PVCL2     CD3           -30.4351618106      -40.5427825343      -14.9803765233  MEMB      196             0.0000000000
     24386       196  PVCL2     H3X           -31.1714982921      -39.9020196402      -14.4497612503  MEMB      196             0.0000000000
     24387       196  PVCL2     H3Y           -29.6334024509      -39.8658886301      -15.3455037500  MEMB      196             0.0000000000
     24388       196  PVCL2     CD4           -29.9367033216      -41.5244504362      -14.0247250377  MEMB      196             0.0000000000
     24389       196  PVCL2     H4X           -29.2409157879      -42.1905410727      -14.5783711622  MEMB      196             0.0000000000
     24390       196  PVCL2     H4Y           -30.7332821794      -42.1954477108      -13.6380136223  MEMB      196             0.0000000000
     24391       196  PVCL2     CD5           -29.0626316579      -41.0100678847      -12.8269739061  MEMB      196             0.0000000000
     24392       196  PVCL2     H5X           -28.2347045229      -40.3774990223      -13.2126086556  MEMB      196             0.0000000000
     24393       196  PVCL2     H5Y           -28.4962813678      -41.8764936512      -12.4233962673  MEMB      196             0.0000000000
     24394       196  PVCL2     CD6           -29.8521904568      -40.2755935119      -11.8284716869  MEMB      196             0.0000000000
     24395       196  PVCL2     H6X           -30.9464013446      -40.4644841074      -11.7918137559  MEMB      196             0.0000000000
     24396       196  PVCL2     H6Y           -29.8378451097      -39.1795023229      -12.0093023526  MEMB      196             0.0000000000
     24397       196  PVCL2     CD7           -29.2278361071      -40.3416798874      -10.4303648044  MEMB      196             0.0000000000
     24398       196  PVCL2     H7X           -28.1180301349      -40.3023537317      -10.4636026088  MEMB      196             0.0000000000
     24399       196  PVCL2     H7Y           -29.5831798146      -41.2702655515       -9.9346026517  MEMB      196             0.0000000000
     24400       196  PVCL2     CD8           -29.6618361534      -39.1260001681       -9.5199007075  MEMB      196             0.0000000000
     24401       196  PVCL2     H8X           -30.7177025897      -38.9741394534       -9.8303924766  MEMB      196             0.0000000000
     24402       196  PVCL2     H8Y           -29.0813189257      -38.2057868696       -9.7446860143  MEMB      196             0.0000000000
     24403       196  PVCL2     CD9           -29.5152952436      -39.4778311472       -8.0272791555  MEMB      196             0.0000000000
     24404       196  PVCL2     H9X           -28.5088509657      -39.1503213793       -7.6894501210  MEMB      196             0.0000000000
     24405       196  PVCL2     H9Y           -29.5411011924      -40.5825893830       -7.9125449491  MEMB      196             0.0000000000
     24406       196  PVCL2     CD10          -30.5991549318      -38.9038854505       -7.1653016519  MEMB      196             0.0000000000
     24407       196  PVCL2     H10X          -31.5898441811      -39.3263336919       -7.4380531258  MEMB      196             0.0000000000
     24408       196  PVCL2     H10Y          -30.6833742206      -37.8448295484       -7.4903080198  MEMB      196             0.0000000000
     24409       196  PVCL2     CD11          -30.3360846538      -39.0095845238       -5.6283074141  MEMB      196             0.0000000000
     24410       196  PVCL2     H11X          -31.1687560634      -38.4447334929       -5.1572210640  MEMB      196             0.0000000000
     24411       196  PVCL2     H11Y          -29.4027999678      -38.4621005956       -5.3761919629  MEMB      196             0.0000000000
     24412       196  PVCL2     CD12          -30.1767937820      -40.4414506854       -5.1804375496  MEMB      196             0.0000000000
     24413       196  PVCL2     H12X          -29.3431331931      -41.0645844678       -5.5690699567  MEMB      196             0.0000000000
     24414       196  PVCL2     H12Y          -31.1153704082      -40.9085721068       -5.5481234792  MEMB      196             0.0000000000
     24415       196  PVCL2     CD13          -30.0346284346      -40.5681128093       -3.5832597106  MEMB      196             0.0000000000
     24416       196  PVCL2     H13X          -30.1982041722      -41.6258185943       -3.2852285328  MEMB      196             0.0000000000
     24417       196  PVCL2     H13Y          -30.7987829523      -39.9420177738       -3.0749344600  MEMB      196             0.0000000000
     24418       196  PVCL2     CD14          -28.6197297965      -40.1269749112       -3.0637040811  MEMB      196             0.0000000000
     24419       196  PVCL2     H14X          -28.4848046555      -39.0969500639       -3.4576134479  MEMB      196             0.0000000000
     24420       196  PVCL2     H14Y          -27.8634446436      -40.7779881651       -3.5521049289  MEMB      196             0.0000000000
     24421       196  PVCL2     CD15          -28.5985308704      -40.1116446561       -1.5149354672  MEMB      196             0.0000000000
     24422       196  PVCL2     H15X          -29.5397156048      -39.8096764807       -1.0076800003  MEMB      196             0.0000000000
     24423       196  PVCL2     H15Y          -27.7258646445      -39.5012403798       -1.1984231001  MEMB      196             0.0000000000
     24424       196  PVCL2     CD16          -28.3111838218      -41.5318949172       -0.9649277326  MEMB      196             0.0000000000
     24425       196  PVCL2     H16X          -28.3607631841      -41.4059464383        0.1377968163  MEMB      196             0.0000000000
     24426       196  PVCL2     H16Y          -27.3038292343      -41.8762778701       -1.2826661612  MEMB      196             0.0000000000
     24427       196  PVCL2     H16Z          -29.1312692462      -42.2543277536       -1.1646063600  MEMB      196             0.0000000000
     24428       197  PMPG      C13           -36.1833250376       35.9822890841      -21.2888934426  MEMB      197             0.0000000000
     24429       197  PMPG      H13A          -35.9328356231       35.1484063980      -21.9789773658  MEMB      197             0.0000000000
     24430       197  PMPG      H13B          -37.2554196964       35.9043385142      -21.0080773924  MEMB      197             0.0000000000
     24431       197  PMPG      OC3           -35.8717665885       37.1263507394      -21.9721962333  MEMB      197             0.0000000000
     24432       197  PMPG      HO3           -34.9349603000       37.0912689195      -22.1789890153  MEMB      197             0.0000000000
     24433       197  PMPG      C12           -35.2173042822       36.0346642472      -20.0244213571  MEMB      197             0.0000000000
     24434       197  PMPG      H12A          -35.7408271562       36.6179868605      -19.2316808138  MEMB      197             0.0000000000
     24435       197  PMPG      OC2           -34.0110431969       36.7243550916      -20.3550293168  MEMB      197             0.0000000000
     24436       197  PMPG      HO2           -33.4487862318       36.5781753381      -19.5630599835  MEMB      197             0.0000000000
     24437       197  PMPG      C11           -34.8998179512       34.6396667367      -19.4568245329  MEMB      197             0.0000000000
     24438       197  PMPG      H11A          -34.5881840586       33.9777208853      -20.2929064337  MEMB      197             0.0000000000
     24439       197  PMPG      H11B          -35.8864625141       34.1890747701      -19.2163656807  MEMB      197             0.0000000000
     24440       197  PMPG      P             -33.7873869085       33.4513639849      -17.4093574664  MEMB      197             0.0000000000
     24441       197  PMPG      O13           -32.3825206689       32.9907356752      -17.3439005565  MEMB      197             0.0000000000
     24442       197  PMPG      O14           -34.8341206247       32.4032187529      -17.7194591588  MEMB      197             0.0000000000
     24443       197  PMPG      O11           -34.2280708041       34.0722586859      -15.9706151049  MEMB      197             0.0000000000
     24444       197  PMPG      O12           -33.8295939368       34.6026030000      -18.4593028318  MEMB      197             0.0000000000
     24445       197  PMPG      C1            -34.0733328998       35.5376046847      -15.9367235581  MEMB      197             0.0000000000
     24446       197  PMPG      HA            -34.7400826285       36.0834070129      -16.6380545857  MEMB      197             0.0000000000
     24447       197  PMPG      HB            -33.0206153505       35.8228953456      -16.1481852275  MEMB      197             0.0000000000
     24448       197  PMPG      C2            -34.4545437872       35.9835666106      -14.5070277862  MEMB      197             0.0000000000
     24449       197  PMPG      HS            -34.2648203937       37.0778534298      -14.4776598672  MEMB      197             0.0000000000
     24450       197  PMPG      O21           -33.6346452736       35.3114922743      -13.4893698277  MEMB      197             0.0000000000
     24451       197  PMPG      C21           -32.3821080468       35.7454661056      -13.3845800432  MEMB      197             0.0000000000
     24452       197  PMPG      O22           -31.8718696632       36.7408920949      -13.8869515811  MEMB      197             0.0000000000
     24453       197  PMPG      C22           -31.6294938648       34.7591169025      -12.5220706097  MEMB      197             0.0000000000
     24454       197  PMPG      H2R           -30.6115195498       35.1816566547      -12.3823945381  MEMB      197             0.0000000000
     24455       197  PMPG      H2S           -31.5367266774       33.7684184826      -13.0162690407  MEMB      197             0.0000000000
     24456       197  PMPG      C3            -35.9210345932       35.7580330520      -14.2907749978  MEMB      197             0.0000000000
     24457       197  PMPG      HX            -36.1939564185       34.6829051810      -14.3535016138  MEMB      197             0.0000000000
     24458       197  PMPG      HY            -36.4442729854       36.2923079796      -15.1124151522  MEMB      197             0.0000000000
     24459       197  PMPG      O31           -36.4100563428       36.3617498300      -13.1459600832  MEMB      197             0.0000000000
     24460       197  PMPG      C31           -37.0198062432       35.5476991198      -12.3451335708  MEMB      197             0.0000000000
     24461       197  PMPG      O32           -37.3309576721       34.4000697647      -12.5953280676  MEMB      197             0.0000000000
     24462       197  PMPG      C32           -37.3457689339       36.2353275663      -11.0188677497  MEMB      197             0.0000000000
     24463       197  PMPG      H2X           -38.4177347173       36.5040776975      -10.9049211115  MEMB      197             0.0000000000
     24464       197  PMPG      H2Y           -36.6620469940       37.0562818284      -10.7141065574  MEMB      197             0.0000000000
     24465       197  PMPG      C23           -32.2133839483       34.5074525204      -11.1158339086  MEMB      197             0.0000000000
     24466       197  PMPG      H3R           -33.2551159162       34.1474409176      -11.2555018894  MEMB      197             0.0000000000
     24467       197  PMPG      H3S           -32.3395220882       35.4659756222      -10.5684365620  MEMB      197             0.0000000000
     24468       197  PMPG      C24           -31.3860464071       33.5873903714      -10.2090500285  MEMB      197             0.0000000000
     24469       197  PMPG      H4R           -30.5074411006       34.2210731981       -9.9624337068  MEMB      197             0.0000000000
     24470       197  PMPG      H4S           -31.0016158996       32.7114455401      -10.7740766251  MEMB      197             0.0000000000
     24471       197  PMPG      C25           -32.0484027388       33.0326802364       -8.8987052605  MEMB      197             0.0000000000
     24472       197  PMPG      H5R           -32.5148028413       33.7795942209       -8.2212751775  MEMB      197             0.0000000000
     24473       197  PMPG      H5S           -31.3752294551       32.4780366042       -8.2105700582  MEMB      197             0.0000000000
     24474       197  PMPG      C26           -33.1960810075       31.9816506801       -9.2314846911  MEMB      197             0.0000000000
     24475       197  PMPG      H6R           -32.6526749163       31.1536287093       -9.7348838295  MEMB      197             0.0000000000
     24476       197  PMPG      H6S           -33.9276800073       32.5408534243       -9.8530761433  MEMB      197             0.0000000000
     24477       197  PMPG      C27           -33.9281100192       31.4113756320       -7.9825735234  MEMB      197             0.0000000000
     24478       197  PMPG      H7R           -34.8965723282       30.9966796586       -8.3353187765  MEMB      197             0.0000000000
     24479       197  PMPG      H7S           -34.2573245222       32.2836032614       -7.3782908120  MEMB      197             0.0000000000
     24480       197  PMPG      C28           -33.1715652942       30.4424978427       -7.0491403282  MEMB      197             0.0000000000
     24481       197  PMPG      H8R           -32.0816604516       30.6562693054       -7.0761616608  MEMB      197             0.0000000000
     24482       197  PMPG      H8S           -33.2133800220       29.3957863155       -7.4192308805  MEMB      197             0.0000000000
     24483       197  PMPG      C29           -33.7314635990       30.5162439284       -5.6132637887  MEMB      197             0.0000000000
     24484       197  PMPG      H9R           -34.7317584824       30.0538146613       -5.4722307971  MEMB      197             0.0000000000
     24485       197  PMPG      C217          -32.7842415596       30.1006907807       -4.4926836088  MEMB      197             0.0000000000
     24486       197  PMPG      H17R          -33.3060674263       29.5578517592       -3.7142798011  MEMB      197             0.0000000000
     24487       197  PMPG      H17S          -31.8575125415       29.8253302959       -4.9807805198  MEMB      197             0.0000000000
     24488       197  PMPG      C210          -33.3211969874       31.5156090238       -4.6168602793  MEMB      197             0.0000000000
     24489       197  PMPG      H10R          -34.0546172068       31.8933120795       -3.8727119331  MEMB      197             0.0000000000
     24490       197  PMPG      C211          -32.2780489534       32.5612982333       -5.1319601061  MEMB      197             0.0000000000
     24491       197  PMPG      H11R          -31.4564328011       32.1236715842       -5.7383851678  MEMB      197             0.0000000000
     24492       197  PMPG      H11S          -32.8102920629       33.3482517788       -5.7079303974  MEMB      197             0.0000000000
     24493       197  PMPG      C212          -31.5018801018       33.3326699159       -4.0093781327  MEMB      197             0.0000000000
     24494       197  PMPG      H12R          -32.1605531858       34.0564688006       -3.4834631743  MEMB      197             0.0000000000
     24495       197  PMPG      H12S          -30.7515041481       33.9256589129       -4.5747280990  MEMB      197             0.0000000000
     24496       197  PMPG      C213          -30.7095044440       32.4403962968       -3.0629041797  MEMB      197             0.0000000000
     24497       197  PMPG      H13R          -30.0868967497       31.6907380844       -3.5964711097  MEMB      197             0.0000000000
     24498       197  PMPG      H13S          -31.5200744699       31.8853269717       -2.5440646372  MEMB      197             0.0000000000
     24499       197  PMPG      C214          -29.7240378190       33.1540308143       -2.1755552662  MEMB      197             0.0000000000
     24500       197  PMPG      H14R          -29.1389675943       33.9636270340       -2.6619370449  MEMB      197             0.0000000000
     24501       197  PMPG      H14S          -29.0499678433       32.3918368040       -1.7294484358  MEMB      197             0.0000000000
     24502       197  PMPG      C215          -30.3710888850       33.7826468491       -0.8890649789  MEMB      197             0.0000000000
     24503       197  PMPG      H15R          -30.9027427354       33.0051792351       -0.2998214838  MEMB      197             0.0000000000
     24504       197  PMPG      H15S          -31.0645801639       34.5616992424       -1.2717769966  MEMB      197             0.0000000000
     24505       197  PMPG      C216          -29.3246890072       34.5795026881       -0.0721914897  MEMB      197             0.0000000000
     24506       197  PMPG      H16R          -28.5169355448       33.8689340842        0.2052032306  MEMB      197             0.0000000000
     24507       197  PMPG      H16S          -29.8131727976       34.8581494245        0.8859630245  MEMB      197             0.0000000000
     24508       197  PMPG      H16T          -28.9046527373       35.4903580955       -0.5499286786  MEMB      197             0.0000000000
     24509       197  PMPG      C33           -37.2109003196       35.1006708758       -9.9593314691  MEMB      197             0.0000000000
     24510       197  PMPG      H3X           -36.1648376496       34.7329530511      -10.0290267085  MEMB      197             0.0000000000
     24511       197  PMPG      H3Y           -37.8605351491       34.2545498338      -10.2697748633  MEMB      197             0.0000000000
     24512       197  PMPG      C34           -37.7040251597       35.5348790369       -8.4962567887  MEMB      197             0.0000000000
     24513       197  PMPG      H4X           -38.7560090670       35.8216976087       -8.7092977065  MEMB      197             0.0000000000
     24514       197  PMPG      H4Y           -37.1172677179       36.4037782229       -8.1287641452  MEMB      197             0.0000000000
     24515       197  PMPG      C35           -37.5850222327       34.3090093637       -7.5322524951  MEMB      197             0.0000000000
     24516       197  PMPG      H5X           -37.9602818929       33.4163604703       -8.0769351975  MEMB      197             0.0000000000
     24517       197  PMPG      H5Y           -38.3819647017       34.5621797458       -6.8007418371  MEMB      197             0.0000000000
     24518       197  PMPG      C36           -36.2749791373       34.1204187526       -6.8607186873  MEMB      197             0.0000000000
     24519       197  PMPG      H6X           -35.4984334519       34.0213500029       -7.6490607083  MEMB      197             0.0000000000
     24520       197  PMPG      H6Y           -36.3265692884       33.2098498835       -6.2262709422  MEMB      197             0.0000000000
     24521       197  PMPG      C37           -36.0270473492       35.1883392341       -5.7900629537  MEMB      197             0.0000000000
     24522       197  PMPG      H7X           -35.8702615117       36.1740144506       -6.2781034304  MEMB      197             0.0000000000
     24523       197  PMPG      H7Y           -35.0216001052       34.9785802550       -5.3665091867  MEMB      197             0.0000000000
     24524       197  PMPG      C38           -36.9639890975       35.1735931772       -4.5632521021  MEMB      197             0.0000000000
     24525       197  PMPG      H8X           -36.9314440370       34.1884596655       -4.0506378682  MEMB      197             0.0000000000
     24526       197  PMPG      H8Y           -38.0027874654       35.3636604118       -4.9083524322  MEMB      197             0.0000000000
     24527       197  PMPG      C39           -36.6264987973       36.2514391355       -3.5433885329  MEMB      197             0.0000000000
     24528       197  PMPG      H9X           -36.6358693766       37.2132503950       -4.0994034887  MEMB      197             0.0000000000
     24529       197  PMPG      H9Y           -35.6350195742       36.2514510013       -3.0420996814  MEMB      197             0.0000000000
     24530       197  PMPG      C310          -37.7244452158       36.2121553154       -2.5185387385  MEMB      197             0.0000000000
     24531       197  PMPG      H10X          -38.7578077668       36.3139485269       -2.9136611448  MEMB      197             0.0000000000
     24532       197  PMPG      H10Y          -37.6674744139       36.9687933431       -1.7070122275  MEMB      197             0.0000000000
     24533       197  PMPG      C311          -37.7367806616       34.7908361022       -1.7482421130  MEMB      197             0.0000000000
     24534       197  PMPG      H11X          -38.1932913273       34.0065385170       -2.3891757230  MEMB      197             0.0000000000
     24535       197  PMPG      H11Y          -38.4029875069       34.8628725997       -0.8620692880  MEMB      197             0.0000000000
     24536       197  PMPG      C312          -36.3839027858       34.1888085320       -1.3781643839  MEMB      197             0.0000000000
     24537       197  PMPG      H12X          -35.6861131281       34.1227302160       -2.2401638969  MEMB      197             0.0000000000
     24538       197  PMPG      H12Y          -36.5861592652       33.2128015834       -0.8874262714  MEMB      197             0.0000000000
     24539       197  PMPG      C313          -35.6425855989       34.9161365848       -0.3060353988  MEMB      197             0.0000000000
     24540       197  PMPG      H13X          -36.1749051316       35.0611538447        0.6582914727  MEMB      197             0.0000000000
     24541       197  PMPG      H13Y          -35.4475875539       35.9602778735       -0.6317120940  MEMB      197             0.0000000000
     24542       197  PMPG      C314          -34.4583825143       34.0926870434        0.0550181730  MEMB      197             0.0000000000
     24543       197  PMPG      H14X          -33.8800962423       33.8764675963       -0.8686445920  MEMB      197             0.0000000000
     24544       197  PMPG      H14Y          -34.8375099492       33.0640214743        0.2351034038  MEMB      197             0.0000000000
     24545       197  PMPG      C315          -33.5649647788       34.6398317800        1.2624114678  MEMB      197             0.0000000000
     24546       197  PMPG      H15X          -32.5681434117       34.1493069642        1.2697386832  MEMB      197             0.0000000000
     24547       197  PMPG      H15Y          -34.0167544025       34.2862247535        2.2138166164  MEMB      197             0.0000000000
     24548       197  PMPG      C316          -33.3003203351       36.1300431360        1.2819844569  MEMB      197             0.0000000000
     24549       197  PMPG      H16X          -34.2530544774       36.7015421428        1.2847303436  MEMB      197             0.0000000000
     24550       197  PMPG      H16Y          -32.7214038912       36.4234277825        0.3802629546  MEMB      197             0.0000000000
     24551       197  PMPG      H16Z          -32.7266680209       36.4065737988        2.1923544220  MEMB      197             0.0000000000
     24552       198  PMPE      N              36.6366712739       32.0885517175      -18.7409354262  MEMB      198             0.0000000000
     24553       198  PMPE      HN1            36.1075683052       31.5822510248      -18.0024845924  MEMB      198             0.0000000000
     24554       198  PMPE      HN2            35.9314362739       32.5591782046      -19.3432263431  MEMB      198             0.0000000000
     24555       198  PMPE      HN3            37.2621204099       31.3728025050      -19.1629735908  MEMB      198             0.0000000000
     24556       198  PMPE      C12            37.4115770472       33.2256142715      -18.1320818973  MEMB      198             0.0000000000
     24557       198  PMPE      H12A           38.0831340959       33.6306247181      -18.9190373029  MEMB      198             0.0000000000
     24558       198  PMPE      H12B           37.9519558023       32.8933691426      -17.2199826887  MEMB      198             0.0000000000
     24559       198  PMPE      C11            36.4724434925       34.3362396032      -17.7189559995  MEMB      198             0.0000000000
     24560       198  PMPE      H11A           36.9033204941       35.0594015630      -16.9939023834  MEMB      198             0.0000000000
     24561       198  PMPE      H11B           35.6224045089       33.8890677256      -17.1605727363  MEMB      198             0.0000000000
     24562       198  PMPE      P              36.2995023935       36.1944611691      -19.5589198581  MEMB      198             0.0000000000
     24563       198  PMPE      O13            35.1680348565       37.0399595626      -19.8756703977  MEMB      198             0.0000000000
     24564       198  PMPE      O14            37.2958334866       35.9262707627      -20.6846633893  MEMB      198             0.0000000000
     24565       198  PMPE      O11            37.1072637474       36.9093434591      -18.4359192171  MEMB      198             0.0000000000
     24566       198  PMPE      O12            35.8314342564       34.9425330572      -18.8528538074  MEMB      198             0.0000000000
     24567       198  PMPE      C1             36.5016379158       37.8438271331      -17.5767007696  MEMB      198             0.0000000000
     24568       198  PMPE      HA             35.6993535152       37.3932450738      -16.9540961061  MEMB      198             0.0000000000
     24569       198  PMPE      HB             36.1419711506       38.7209620971      -18.1560063185  MEMB      198             0.0000000000
     24570       198  PMPE      C2             37.5821675190       38.4089980644      -16.6028097543  MEMB      198             0.0000000000
     24571       198  PMPE      HS             38.3799857097       38.8943542256      -17.2046705488  MEMB      198             0.0000000000
     24572       198  PMPE      O21            37.9914523690       37.4098365669      -15.6610231170  MEMB      198             0.0000000000
     24573       198  PMPE      C21            39.0656673804       36.6797138994      -15.9737750119  MEMB      198             0.0000000000
     24574       198  PMPE      O22            39.6458520518       36.7579697663      -17.0491696957  MEMB      198             0.0000000000
     24575       198  PMPE      C22            39.7091882293       35.9855057159      -14.7025649478  MEMB      198             0.0000000000
     24576       198  PMPE      H2R            40.7133422182       35.6757964869      -15.0632248856  MEMB      198             0.0000000000
     24577       198  PMPE      H2S            39.1914542562       35.0136234038      -14.5551959932  MEMB      198             0.0000000000
     24578       198  PMPE      C3             37.0244850550       39.5753677261      -15.7480472553  MEMB      198             0.0000000000
     24579       198  PMPE      HX             36.9401236798       40.5510152670      -16.2727528857  MEMB      198             0.0000000000
     24580       198  PMPE      HY             37.5873319181       39.6732640212      -14.7951880591  MEMB      198             0.0000000000
     24581       198  PMPE      O31            35.6793054915       39.2889629186      -15.3847600244  MEMB      198             0.0000000000
     24582       198  PMPE      C31            35.5192672204       38.5228742938      -14.2353298152  MEMB      198             0.0000000000
     24583       198  PMPE      O32            36.2461516012       38.4316822771      -13.3216094734  MEMB      198             0.0000000000
     24584       198  PMPE      C32            34.2340851872       37.8432599633      -14.2705995642  MEMB      198             0.0000000000
     24585       198  PMPE      H2X            33.9861187378       37.3814867850      -15.2501911361  MEMB      198             0.0000000000
     24586       198  PMPE      H2Y            33.5460537970       38.7069833330      -14.1484710554  MEMB      198             0.0000000000
     24587       198  PMPE      C23            39.6815739038       36.8675887386      -13.4026021448  MEMB      198             0.0000000000
     24588       198  PMPE      H3R            38.5910089241       36.9720679451      -13.2180123451  MEMB      198             0.0000000000
     24589       198  PMPE      H3S            40.0645347416       37.8728457638      -13.6803070728  MEMB      198             0.0000000000
     24590       198  PMPE      C24            40.5173768842       36.3021319845      -12.1960765736  MEMB      198             0.0000000000
     24591       198  PMPE      H4R            41.5280515255       36.0781058320      -12.5994007805  MEMB      198             0.0000000000
     24592       198  PMPE      H4S            40.0676033710       35.3613848814      -11.8126451399  MEMB      198             0.0000000000
     24593       198  PMPE      C25            40.7417869390       37.3375435041      -11.1131265657  MEMB      198             0.0000000000
     24594       198  PMPE      H5R            41.4397729459       38.1495445029      -11.4094224618  MEMB      198             0.0000000000
     24595       198  PMPE      H5S            41.4974164372       36.8996313174      -10.4264117058  MEMB      198             0.0000000000
     24596       198  PMPE      C26            39.5206289452       37.8473579585      -10.3461745388  MEMB      198             0.0000000000
     24597       198  PMPE      H6R            39.1089853155       38.5822550628      -11.0706035222  MEMB      198             0.0000000000
     24598       198  PMPE      H6S            39.8537243812       38.4951215219       -9.5072649020  MEMB      198             0.0000000000
     24599       198  PMPE      C27            38.5634403892       36.8027665664       -9.7732019427  MEMB      198             0.0000000000
     24600       198  PMPE      H7R            38.2089131589       36.0434397689      -10.5026220421  MEMB      198             0.0000000000
     24601       198  PMPE      H7S            37.6484266201       37.3164697959       -9.4082638135  MEMB      198             0.0000000000
     24602       198  PMPE      C28            38.9932767822       35.9466898125       -8.5415863014  MEMB      198             0.0000000000
     24603       198  PMPE      H8R            38.1077148816       35.5801873818       -7.9796456449  MEMB      198             0.0000000000
     24604       198  PMPE      H8S            39.3998165864       36.7662512416       -7.9112170195  MEMB      198             0.0000000000
     24605       198  PMPE      C29            39.9769488862       34.7231857715       -8.7407999709  MEMB      198             0.0000000000
     24606       198  PMPE      H9R            40.9394905188       34.9243604023       -9.2578721916  MEMB      198             0.0000000000
     24607       198  PMPE      C217           39.2710605792       33.3907306706       -9.0605599166  MEMB      198             0.0000000000
     24608       198  PMPE      H17R           39.7986245067       32.8626781471       -9.8452421547  MEMB      198             0.0000000000
     24609       198  PMPE      H17S           38.1901430325       33.4545338432       -9.0814321342  MEMB      198             0.0000000000
     24610       198  PMPE      C210           40.0406499541       33.5627525625       -7.7594028382  MEMB      198             0.0000000000
     24611       198  PMPE      H10R           41.1039826374       33.2421365940       -7.7302497277  MEMB      198             0.0000000000
     24612       198  PMPE      C211           39.1780143246       33.6637616459       -6.4855509635  MEMB      198             0.0000000000
     24613       198  PMPE      H11R           38.2925157682       32.9995515519       -6.5806213836  MEMB      198             0.0000000000
     24614       198  PMPE      H11S           38.8674171168       34.6972078004       -6.2212796515  MEMB      198             0.0000000000
     24615       198  PMPE      C212           40.1937698695       33.3117178830       -5.3189531938  MEMB      198             0.0000000000
     24616       198  PMPE      H12R           40.7336457010       32.3900564040       -5.6245593256  MEMB      198             0.0000000000
     24617       198  PMPE      H12S           39.6680515604       33.2749060192       -4.3409002613  MEMB      198             0.0000000000
     24618       198  PMPE      C213           41.3288293273       34.3049192411       -5.1724839693  MEMB      198             0.0000000000
     24619       198  PMPE      H13R           40.8311640114       35.2901307332       -5.2990097443  MEMB      198             0.0000000000
     24620       198  PMPE      H13S           41.9574490829       34.2732060395       -6.0879909446  MEMB      198             0.0000000000
     24621       198  PMPE      C214           42.0608822207       34.2325403516       -3.8307272426  MEMB      198             0.0000000000
     24622       198  PMPE      H14R           42.9542960989       34.8929335526       -3.8343144640  MEMB      198             0.0000000000
     24623       198  PMPE      H14S           42.3240237461       33.1655974436       -3.6672954789  MEMB      198             0.0000000000
     24624       198  PMPE      C215           41.1987378486       34.5196579975       -2.6228501754  MEMB      198             0.0000000000
     24625       198  PMPE      H15R           40.5000092786       33.7153069457       -2.3080197269  MEMB      198             0.0000000000
     24626       198  PMPE      H15S           40.5903604824       35.4100687087       -2.8899964043  MEMB      198             0.0000000000
     24627       198  PMPE      C216           42.0640000239       34.9352975520       -1.3923686452  MEMB      198             0.0000000000
     24628       198  PMPE      H16R           41.5109410940       35.4911039383       -0.6052683711  MEMB      198             0.0000000000
     24629       198  PMPE      H16S           42.6199288351       34.0965409634       -0.9214644353  MEMB      198             0.0000000000
     24630       198  PMPE      H16T           42.7778352242       35.7024930103       -1.7613815512  MEMB      198             0.0000000000
     24631       198  PMPE      C33            33.8728316123       36.8018712073      -13.1804978067  MEMB      198             0.0000000000
     24632       198  PMPE      H3X            34.0899694633       37.2308201714      -12.1789117919  MEMB      198             0.0000000000
     24633       198  PMPE      H3Y            34.6198525823       35.9797382324      -13.1999307521  MEMB      198             0.0000000000
     24634       198  PMPE      C34            32.4411941521       36.2570012706      -13.0307832981  MEMB      198             0.0000000000
     24635       198  PMPE      H4X            32.1825122187       35.6157419474      -13.9003757796  MEMB      198             0.0000000000
     24636       198  PMPE      H4Y            31.7756465195       37.1361026138      -12.8945913189  MEMB      198             0.0000000000
     24637       198  PMPE      C35            32.2109768286       35.4118989592      -11.8113468522  MEMB      198             0.0000000000
     24638       198  PMPE      H5X            31.1583261392       35.3119648474      -11.4703773468  MEMB      198             0.0000000000
     24639       198  PMPE      H5Y            32.6408084709       35.9759707088      -10.9561337641  MEMB      198             0.0000000000
     24640       198  PMPE      C36            32.7612572208       33.9557498316      -11.9460131390  MEMB      198             0.0000000000
     24641       198  PMPE      H6X            33.8342287985       34.1471298661      -12.1614810922  MEMB      198             0.0000000000
     24642       198  PMPE      H6Y            32.3129745435       33.4649828238      -12.8362440241  MEMB      198             0.0000000000
     24643       198  PMPE      C37            32.6632879831       33.0107571839      -10.7161503298  MEMB      198             0.0000000000
     24644       198  PMPE      H7X            33.2914997691       32.1187023279      -10.9256959323  MEMB      198             0.0000000000
     24645       198  PMPE      H7Y            31.5795053751       32.7883947603      -10.6147065075  MEMB      198             0.0000000000
     24646       198  PMPE      C38            33.0436691784       33.6203188618       -9.3338481824  MEMB      198             0.0000000000
     24647       198  PMPE      H8X            32.4899633072       33.0004497797       -8.5966283306  MEMB      198             0.0000000000
     24648       198  PMPE      H8Y            32.7075956697       34.6791321764       -9.3168209043  MEMB      198             0.0000000000
     24649       198  PMPE      C39            34.5369964260       33.5496766458       -8.9812061749  MEMB      198             0.0000000000
     24650       198  PMPE      H9X            35.0992479683       34.0980455894       -9.7670088617  MEMB      198             0.0000000000
     24651       198  PMPE      H9Y            34.8264219367       32.4847431689       -9.1095436160  MEMB      198             0.0000000000
     24652       198  PMPE      C310           34.9299097197       34.0196800257       -7.5928443252  MEMB      198             0.0000000000
     24653       198  PMPE      H10X           36.0304933091       33.9914889478       -7.4437073669  MEMB      198             0.0000000000
     24654       198  PMPE      H10Y           34.4513972533       33.3676302552       -6.8311495942  MEMB      198             0.0000000000
     24655       198  PMPE      C311           34.5028644056       35.5145826005       -7.2892016412  MEMB      198             0.0000000000
     24656       198  PMPE      H11X           33.5670811130       35.7789420810       -7.8265511273  MEMB      198             0.0000000000
     24657       198  PMPE      H11Y           35.2964362537       36.1663668939       -7.7131611820  MEMB      198             0.0000000000
     24658       198  PMPE      C312           34.3542116416       35.8683996927       -5.7714346917  MEMB      198             0.0000000000
     24659       198  PMPE      H12X           33.5130269833       35.2161698651       -5.4531176521  MEMB      198             0.0000000000
     24660       198  PMPE      H12Y           34.0578919002       36.9216998876       -5.5788883285  MEMB      198             0.0000000000
     24661       198  PMPE      C313           35.4983686334       35.4733313263       -4.9049240082  MEMB      198             0.0000000000
     24662       198  PMPE      H13X           36.4699041764       35.9267141063       -5.1962725546  MEMB      198             0.0000000000
     24663       198  PMPE      H13Y           35.6855944147       34.3882332238       -5.0526717989  MEMB      198             0.0000000000
     24664       198  PMPE      C314           35.3327609280       35.7466404902       -3.3927288428  MEMB      198             0.0000000000
     24665       198  PMPE      H14X           34.4389591901       35.1972289686       -3.0272340686  MEMB      198             0.0000000000
     24666       198  PMPE      H14Y           35.0065265990       36.8073285186       -3.4459569666  MEMB      198             0.0000000000
     24667       198  PMPE      C315           36.5630683341       35.3923971173       -2.5481037605  MEMB      198             0.0000000000
     24668       198  PMPE      H15X           37.0809300372       34.5469919186       -3.0495315942  MEMB      198             0.0000000000
     24669       198  PMPE      H15Y           36.3690794993       35.1846623990       -1.4740759483  MEMB      198             0.0000000000
     24670       198  PMPE      C316           37.7495865104       36.4277873969       -2.5558291967  MEMB      198             0.0000000000
     24671       198  PMPE      H16X           37.3345452193       37.4429113936       -2.3781080979  MEMB      198             0.0000000000
     24672       198  PMPE      H16Y           38.2849932378       36.4874943562       -3.5274750086  MEMB      198             0.0000000000
     24673       198  PMPE      H16Z           38.5557144417       36.1697931593       -1.8361625532  MEMB      198             0.0000000000
     24674       199  PMPE      N              30.4266972363      -39.1664420405      -20.2933880654  MEMB      199             0.0000000000
     24675       199  PMPE      HN1            29.5494315085      -39.2618669161      -19.7430256413  MEMB      199             0.0000000000
     24676       199  PMPE      HN2            30.8848202035      -38.2436056449      -20.1516265156  MEMB      199             0.0000000000
     24677       199  PMPE      HN3            30.3524781139      -39.4288569298      -21.2969966996  MEMB      199             0.0000000000
     24678       199  PMPE      C12            31.4284415676      -40.1605268468      -19.7765373959  MEMB      199             0.0000000000
     24679       199  PMPE      H12A           31.2312736916      -41.1759066055      -20.1820612116  MEMB      199             0.0000000000
     24680       199  PMPE      H12B           31.2144118834      -40.1937277593      -18.6868539599  MEMB      199             0.0000000000
     24681       199  PMPE      C11            32.8196721682      -39.7103312145      -20.2242469653  MEMB      199             0.0000000000
     24682       199  PMPE      H11A           32.9203542770      -39.5701268581      -21.3217564845  MEMB      199             0.0000000000
     24683       199  PMPE      H11B           33.5601120047      -40.4906309852      -19.9463941885  MEMB      199             0.0000000000
     24684       199  PMPE      P              33.9646165916      -38.4279522836      -18.3330833526  MEMB      199             0.0000000000
     24685       199  PMPE      O13            34.2048428100      -37.0242530203      -17.9650446754  MEMB      199             0.0000000000
     24686       199  PMPE      O14            35.1024855176      -39.2898367999      -18.5829327016  MEMB      199             0.0000000000
     24687       199  PMPE      O11            33.0561786503      -39.2028287873      -17.1889724540  MEMB      199             0.0000000000
     24688       199  PMPE      O12            33.0816337502      -38.4447954091      -19.6357943888  MEMB      199             0.0000000000
     24689       199  PMPE      C1             31.9483568217      -38.4854226688      -16.7469682850  MEMB      199             0.0000000000
     24690       199  PMPE      HA             31.0215521465      -39.0875239938      -16.8602288849  MEMB      199             0.0000000000
     24691       199  PMPE      HB             31.7263288427      -37.4619192023      -17.1177312514  MEMB      199             0.0000000000
     24692       199  PMPE      C2             32.0451814040      -38.2631170567      -15.1941860932  MEMB      199             0.0000000000
     24693       199  PMPE      HS             32.9971839845      -37.7009657743      -15.0846505507  MEMB      199             0.0000000000
     24694       199  PMPE      O21            32.0731494286      -39.5629453885      -14.5367205718  MEMB      199             0.0000000000
     24695       199  PMPE      C21            32.7088507279      -39.4728559860      -13.4143942746  MEMB      199             0.0000000000
     24696       199  PMPE      O22            33.2128701782      -38.4600585573      -12.9418368417  MEMB      199             0.0000000000
     24697       199  PMPE      C22            32.6086816551      -40.7404120859      -12.5998064605  MEMB      199             0.0000000000
     24698       199  PMPE      H2R            32.8128156533      -41.6767316978      -13.1619062058  MEMB      199             0.0000000000
     24699       199  PMPE      H2S            31.5650785975      -40.9402343744      -12.2753303094  MEMB      199             0.0000000000
     24700       199  PMPE      C3             30.8673659327      -37.4033957886      -14.7514234598  MEMB      199             0.0000000000
     24701       199  PMPE      HX             29.9255143234      -37.9781348126      -14.8814681693  MEMB      199             0.0000000000
     24702       199  PMPE      HY             30.7256247961      -36.4743100316      -15.3439013165  MEMB      199             0.0000000000
     24703       199  PMPE      O31            30.9525046529      -37.0519717609      -13.3817332358  MEMB      199             0.0000000000
     24704       199  PMPE      C31            31.3941462717      -35.8705468217      -13.0060761929  MEMB      199             0.0000000000
     24705       199  PMPE      O32            31.7870360036      -35.0371523322      -13.8744719162  MEMB      199             0.0000000000
     24706       199  PMPE      C32            31.5066309459      -35.7705270953      -11.4532361256  MEMB      199             0.0000000000
     24707       199  PMPE      H2X            31.1056161517      -36.7175581685      -11.0329497292  MEMB      199             0.0000000000
     24708       199  PMPE      H2Y            30.6719663984      -35.1005827948      -11.1551907721  MEMB      199             0.0000000000
     24709       199  PMPE      C23            33.3756367806      -40.7489029068      -11.2504085146  MEMB      199             0.0000000000
     24710       199  PMPE      H3R            32.8933847253      -39.9701371360      -10.6216975923  MEMB      199             0.0000000000
     24711       199  PMPE      H3S            34.4281361721      -40.3971930109      -11.3039449464  MEMB      199             0.0000000000
     24712       199  PMPE      C24            33.3628081851      -42.0976186044      -10.5648296732  MEMB      199             0.0000000000
     24713       199  PMPE      H4R            33.9218051897      -41.8982748996       -9.6256257354  MEMB      199             0.0000000000
     24714       199  PMPE      H4S            33.8881428129      -42.8819413521      -11.1506478401  MEMB      199             0.0000000000
     24715       199  PMPE      C25            31.9406721980      -42.6494717358      -10.0792054315  MEMB      199             0.0000000000
     24716       199  PMPE      H5R            32.2336829705      -43.6402456788       -9.6707545874  MEMB      199             0.0000000000
     24717       199  PMPE      H5S            31.3449480712      -42.9055656510      -10.9813422190  MEMB      199             0.0000000000
     24718       199  PMPE      C26            31.2470707800      -41.6524555962       -9.1210933069  MEMB      199             0.0000000000
     24719       199  PMPE      H6R            30.2370777112      -42.1028376757       -9.0143662701  MEMB      199             0.0000000000
     24720       199  PMPE      H6S            31.2385685692      -40.6344199551       -9.5658989563  MEMB      199             0.0000000000
     24721       199  PMPE      C27            31.9263846510      -41.5263687118       -7.7424518890  MEMB      199             0.0000000000
     24722       199  PMPE      H7R            32.9729105186      -41.1602782069       -7.8137424863  MEMB      199             0.0000000000
     24723       199  PMPE      H7S            31.8903380281      -42.5763327920       -7.3810693168  MEMB      199             0.0000000000
     24724       199  PMPE      C28            31.0683711898      -40.7757698822       -6.6407022695  MEMB      199             0.0000000000
     24725       199  PMPE      H8R            31.4363010521      -41.0522342128       -5.6295065056  MEMB      199             0.0000000000
     24726       199  PMPE      H8S            30.0109659939      -41.0992564101       -6.7482729442  MEMB      199             0.0000000000
     24727       199  PMPE      C29            31.0598800213      -39.2968537584       -6.9361692470  MEMB      199             0.0000000000
     24728       199  PMPE      H9R            30.5423391715      -38.8867731502       -7.8296492013  MEMB      199             0.0000000000
     24729       199  PMPE      C217           32.3759070741      -38.4362897831       -6.7934527814  MEMB      199             0.0000000000
     24730       199  PMPE      H17R           32.4160259806      -37.6111473574       -7.4937523804  MEMB      199             0.0000000000
     24731       199  PMPE      H17S           33.2508114852      -38.8069753701       -6.2738143461  MEMB      199             0.0000000000
     24732       199  PMPE      C210           31.2075603662      -38.2461344308       -5.8401632930  MEMB      199             0.0000000000
     24733       199  PMPE      H10R           30.6483833838      -37.3121817333       -6.0623668308  MEMB      199             0.0000000000
     24734       199  PMPE      C211           31.4009694427      -38.6250723033       -4.3415740153  MEMB      199             0.0000000000
     24735       199  PMPE      H11R           32.2283881770      -39.3480819372       -4.1773894533  MEMB      199             0.0000000000
     24736       199  PMPE      H11S           30.4319049576      -39.0318318015       -3.9813215873  MEMB      199             0.0000000000
     24737       199  PMPE      C212           31.5150886926      -37.4130325397       -3.4017452693  MEMB      199             0.0000000000
     24738       199  PMPE      H12R           30.5264902171      -36.9061120022       -3.4068050001  MEMB      199             0.0000000000
     24739       199  PMPE      H12S           32.1769863809      -36.6093974781       -3.7895379572  MEMB      199             0.0000000000
     24740       199  PMPE      C213           31.9237337203      -37.7305342539       -1.9764096554  MEMB      199             0.0000000000
     24741       199  PMPE      H13R           32.9249083047      -38.2004897998       -1.8709988124  MEMB      199             0.0000000000
     24742       199  PMPE      H13S           31.3143389227      -38.5588830406       -1.5559373560  MEMB      199             0.0000000000
     24743       199  PMPE      C214           31.8175070744      -36.5554423607       -0.9851386488  MEMB      199             0.0000000000
     24744       199  PMPE      H14R           30.7656344938      -36.5966317662       -0.6299083135  MEMB      199             0.0000000000
     24745       199  PMPE      H14S           31.9346157680      -35.6469616306       -1.6138432876  MEMB      199             0.0000000000
     24746       199  PMPE      C215           32.7887975371      -36.5182528303        0.2390842535  MEMB      199             0.0000000000
     24747       199  PMPE      H15R           33.2494023098      -37.5245114714        0.3371024859  MEMB      199             0.0000000000
     24748       199  PMPE      H15S           32.1037542552      -36.2264029696        1.0636194532  MEMB      199             0.0000000000
     24749       199  PMPE      C216           33.9526542741      -35.4646169358        0.1359789956  MEMB      199             0.0000000000
     24750       199  PMPE      H16R           34.5136590703      -35.5536672769        1.0907901355  MEMB      199             0.0000000000
     24751       199  PMPE      H16S           34.5675909282      -35.6766085821       -0.7647053934  MEMB      199             0.0000000000
     24752       199  PMPE      H16T           33.5065827953      -34.4474196228        0.1104744380  MEMB      199             0.0000000000
     24753       199  PMPE      C33            32.7853062187      -35.1624910387      -10.8778370292  MEMB      199             0.0000000000
     24754       199  PMPE      H3X            32.6664011120      -34.8688121249       -9.8129726079  MEMB      199             0.0000000000
     24755       199  PMPE      H3Y            32.9767212297      -34.2348451277      -11.4584866328  MEMB      199             0.0000000000
     24756       199  PMPE      C34            33.9515309525      -36.0900390747      -11.1006623087  MEMB      199             0.0000000000
     24757       199  PMPE      H4X            34.0160553298      -36.2289190945      -12.2010578064  MEMB      199             0.0000000000
     24758       199  PMPE      H4Y            33.8455513819      -37.0372419230      -10.5297890649  MEMB      199             0.0000000000
     24759       199  PMPE      C35            35.2872299194      -35.5277428917      -10.6588012400  MEMB      199             0.0000000000
     24760       199  PMPE      H5X            35.4594827155      -35.1426094045       -9.6310265926  MEMB      199             0.0000000000
     24761       199  PMPE      H5Y            35.5272809206      -34.6480086365      -11.2934384978  MEMB      199             0.0000000000
     24762       199  PMPE      C36            36.4557266911      -36.5502136644      -10.9218462204  MEMB      199             0.0000000000
     24763       199  PMPE      H6X            37.4188109562      -36.0067485268      -11.0287820295  MEMB      199             0.0000000000
     24764       199  PMPE      H6Y            36.2842727562      -36.9384374342      -11.9485922734  MEMB      199             0.0000000000
     24765       199  PMPE      C37            36.6825715658      -37.6073353619       -9.8659867847  MEMB      199             0.0000000000
     24766       199  PMPE      H7X            35.7006570569      -37.9178183402       -9.4491360549  MEMB      199             0.0000000000
     24767       199  PMPE      H7Y            37.2666491825      -37.2551083212       -8.9889978093  MEMB      199             0.0000000000
     24768       199  PMPE      C38            37.4355718870      -38.9515307332      -10.2638332571  MEMB      199             0.0000000000
     24769       199  PMPE      H8X            38.5359388746      -38.8146513643      -10.3329518059  MEMB      199             0.0000000000
     24770       199  PMPE      H8Y            36.9840242640      -39.3465267672      -11.1989283570  MEMB      199             0.0000000000
     24771       199  PMPE      C39            37.0633870468      -40.1506096540       -9.3588706262  MEMB      199             0.0000000000
     24772       199  PMPE      H9X            37.5876677748      -40.9719885566       -9.8925251729  MEMB      199             0.0000000000
     24773       199  PMPE      H9Y            35.9781565357      -40.3583522792       -9.4747967249  MEMB      199             0.0000000000
     24774       199  PMPE      C310           37.5903241421      -39.8067380062       -7.9943493448  MEMB      199             0.0000000000
     24775       199  PMPE      H10X           37.2477920794      -38.8250172531       -7.6029194736  MEMB      199             0.0000000000
     24776       199  PMPE      H10Y           38.6961380126      -39.9093236522       -8.0255415664  MEMB      199             0.0000000000
     24777       199  PMPE      C311           37.1654634496      -40.8520103222       -6.8720384003  MEMB      199             0.0000000000
     24778       199  PMPE      H11X           37.5448030977      -40.4890390168       -5.8929198613  MEMB      199             0.0000000000
     24779       199  PMPE      H11Y           37.7235312571      -41.8062686969       -6.9828201539  MEMB      199             0.0000000000
     24780       199  PMPE      C312           35.7132673125      -41.2459444151       -6.7880388807  MEMB      199             0.0000000000
     24781       199  PMPE      H12X           35.2964213099      -41.7810205535       -7.6679554278  MEMB      199             0.0000000000
     24782       199  PMPE      H12Y           35.1635589930      -40.2815197587       -6.7430205544  MEMB      199             0.0000000000
     24783       199  PMPE      C313           35.2224182703      -42.2308030604       -5.6846585842  MEMB      199             0.0000000000
     24784       199  PMPE      H13X           35.8215671834      -43.1637041911       -5.6136861313  MEMB      199             0.0000000000
     24785       199  PMPE      H13Y           34.2281191720      -42.5837284425       -6.0327009943  MEMB      199             0.0000000000
     24786       199  PMPE      C314           34.9484438713      -41.5010183190       -4.3057684412  MEMB      199             0.0000000000
     24787       199  PMPE      H14X           34.1717533286      -40.7086679127       -4.2487270927  MEMB      199             0.0000000000
     24788       199  PMPE      H14Y           35.9212814218      -41.0633519519       -3.9953554415  MEMB      199             0.0000000000
     24789       199  PMPE      C315           34.4918025869      -42.5187376047       -3.1931549422  MEMB      199             0.0000000000
     24790       199  PMPE      H15X           33.4865923519      -42.8913308959       -3.4847844889  MEMB      199             0.0000000000
     24791       199  PMPE      H15Y           34.3538351158      -42.0142801093       -2.2129470598  MEMB      199             0.0000000000
     24792       199  PMPE      C316           35.4091990485      -43.6922252044       -2.9320401675  MEMB      199             0.0000000000
     24793       199  PMPE      H16X           35.1344073959      -44.2640929207       -2.0200226181  MEMB      199             0.0000000000
     24794       199  PMPE      H16Y           36.4417112874      -43.3060197496       -2.7938941889  MEMB      199             0.0000000000
     24795       199  PMPE      H16Z           35.3397066881      -44.4057143454       -3.7808196452  MEMB      199             0.0000000000
     24796       200  PYPG      C13           -37.7712495170      -34.8977261677      -20.6905194982  MEMB      200             0.0000000000
     24797       200  PYPG      H13A          -37.8286399569      -36.0031038216      -20.5947723898  MEMB      200             0.0000000000
     24798       200  PYPG      H13B          -38.7866534109      -34.5255717659      -20.4360056151  MEMB      200             0.0000000000
     24799       200  PYPG      OC3           -37.6493355846      -34.6031480646      -22.0549798940  MEMB      200             0.0000000000
     24800       200  PYPG      HO3           -36.9651182824      -35.1155998499      -22.4918318427  MEMB      200             0.0000000000
     24801       200  PYPG      C12           -36.5930861153      -34.5702363189      -19.8547526886  MEMB      200             0.0000000000
     24802       200  PYPG      H12A          -36.6637556218      -33.4891793551      -19.5918825649  MEMB      200             0.0000000000
     24803       200  PYPG      OC2           -35.3909805170      -34.7645864836      -20.6012183837  MEMB      200             0.0000000000
     24804       200  PYPG      HO2           -34.6893399906      -34.6540842461      -19.9228330454  MEMB      200             0.0000000000
     24805       200  PYPG      C11           -36.5003867595      -35.3501634478      -18.5309980884  MEMB      200             0.0000000000
     24806       200  PYPG      H11A          -37.5454844069      -35.2738863409      -18.1618453022  MEMB      200             0.0000000000
     24807       200  PYPG      H11B          -35.8040018208      -34.8827815283      -17.8023533135  MEMB      200             0.0000000000
     24808       200  PYPG      P             -36.2259681387      -37.7379835728      -17.6102424699  MEMB      200             0.0000000000
     24809       200  PYPG      O13           -35.2382170795      -37.4706473160      -16.6109871726  MEMB      200             0.0000000000
     24810       200  PYPG      O14           -36.1341977527      -39.1098168969      -18.2244078949  MEMB      200             0.0000000000
     24811       200  PYPG      O11           -37.6825051019      -37.5845356601      -17.0486520330  MEMB      200             0.0000000000
     24812       200  PYPG      O12           -36.1720962459      -36.6476116485      -18.7732418670  MEMB      200             0.0000000000
     24813       200  PYPG      C1            -38.8172363955      -37.7198543187      -17.8567515011  MEMB      200             0.0000000000
     24814       200  PYPG      HA            -39.0371097000      -38.7658916205      -18.1597077366  MEMB      200             0.0000000000
     24815       200  PYPG      HB            -38.6999791572      -37.2030595175      -18.8332221605  MEMB      200             0.0000000000
     24816       200  PYPG      C2            -40.0762723991      -37.1843776925      -17.0664938952  MEMB      200             0.0000000000
     24817       200  PYPG      HS            -40.9563210705      -37.1756713384      -17.7445497747  MEMB      200             0.0000000000
     24818       200  PYPG      O21           -39.7560559082      -35.9888830067      -16.5336340348  MEMB      200             0.0000000000
     24819       200  PYPG      C21           -40.3618100149      -34.8826398481      -16.9189245941  MEMB      200             0.0000000000
     24820       200  PYPG      O22           -41.3017323181      -34.8541520900      -17.7218700301  MEMB      200             0.0000000000
     24821       200  PYPG      C22           -39.7389927723      -33.6528236479      -16.2734131993  MEMB      200             0.0000000000
     24822       200  PYPG      H2R           -40.2155046863      -32.7587845896      -16.7294303500  MEMB      200             0.0000000000
     24823       200  PYPG      H2S           -38.6452514149      -33.4645160230      -16.3243190782  MEMB      200             0.0000000000
     24824       200  PYPG      C3            -40.4784934336      -38.1210230387      -15.9319064382  MEMB      200             0.0000000000
     24825       200  PYPG      HX            -40.8999126470      -38.9941531663      -16.4744656389  MEMB      200             0.0000000000
     24826       200  PYPG      HY            -41.2927612773      -37.6446891567      -15.3450545880  MEMB      200             0.0000000000
     24827       200  PYPG      O31           -39.3982647583      -38.3435901324      -15.1304306908  MEMB      200             0.0000000000
     24828       200  PYPG      C31           -39.5463217826      -38.3078862290      -13.7847911825  MEMB      200             0.0000000000
     24829       200  PYPG      O32           -40.4781847301      -37.8026818563      -13.1438361425  MEMB      200             0.0000000000
     24830       200  PYPG      C32           -38.3928947208      -39.0562945508      -13.1801285295  MEMB      200             0.0000000000
     24831       200  PYPG      H2X           -38.8217207557      -39.8265457275      -12.5040051080  MEMB      200             0.0000000000
     24832       200  PYPG      H2Y           -37.8353321314      -39.6181310381      -13.9597338235  MEMB      200             0.0000000000
     24833       200  PYPG      C23           -40.0682955154      -33.5560396594      -14.7698205242  MEMB      200             0.0000000000
     24834       200  PYPG      H3R           -39.6513234296      -34.4962213329      -14.3496850577  MEMB      200             0.0000000000
     24835       200  PYPG      H3S           -41.1719254351      -33.6203138400      -14.6594090691  MEMB      200             0.0000000000
     24836       200  PYPG      C24           -39.4290085125      -32.3138847555      -14.0717903439  MEMB      200             0.0000000000
     24837       200  PYPG      H4R           -39.9772351672      -31.4693902035      -14.5414678536  MEMB      200             0.0000000000
     24838       200  PYPG      H4S           -38.3237128850      -32.2329900116      -14.1498856656  MEMB      200             0.0000000000
     24839       200  PYPG      C25           -39.5902475006      -32.2273242591      -12.5653719346  MEMB      200             0.0000000000
     24840       200  PYPG      H5R           -39.3310331050      -31.2025039444      -12.2235062903  MEMB      200             0.0000000000
     24841       200  PYPG      H5S           -38.9298444400      -32.9353370398      -12.0204806355  MEMB      200             0.0000000000
     24842       200  PYPG      C26           -41.0667893619      -32.6581925400      -12.1770950725  MEMB      200             0.0000000000
     24843       200  PYPG      H6R           -41.1405640582      -33.7512892592      -12.3615344688  MEMB      200             0.0000000000
     24844       200  PYPG      H6S           -41.6916576876      -32.1550983999      -12.9457021964  MEMB      200             0.0000000000
     24845       200  PYPG      C27           -41.5052588783      -32.3941584936      -10.6947552549  MEMB      200             0.0000000000
     24846       200  PYPG      H7R           -42.3743936155      -33.0813110854      -10.6126144062  MEMB      200             0.0000000000
     24847       200  PYPG      H7S           -41.7511394729      -31.3112491292      -10.6605306334  MEMB      200             0.0000000000
     24848       200  PYPG      C28           -40.4268789493      -32.8057096774       -9.6507682197  MEMB      200             0.0000000000
     24849       200  PYPG      H8R           -40.8655550856      -32.4624068467       -8.6895055239  MEMB      200             0.0000000000
     24850       200  PYPG      H8S           -39.4987377351      -32.2743129229       -9.9515876876  MEMB      200             0.0000000000
     24851       200  PYPG      C29           -40.1319372508      -34.2930115715       -9.5574269068  MEMB      200             0.0000000000
     24852       200  PYPG      H9R           -39.8756408914      -34.8103369620      -10.4937430000  MEMB      200             0.0000000000
     24853       200  PYPG      C210          -40.2205145100      -35.1102053856       -8.4104463057  MEMB      200             0.0000000000
     24854       200  PYPG      H10R          -39.8398770295      -36.1422295426       -8.4168532226  MEMB      200             0.0000000000
     24855       200  PYPG      C211          -40.6168611296      -34.8129711751       -7.0215168322  MEMB      200             0.0000000000
     24856       200  PYPG      H11R          -40.5221317054      -35.7522383941       -6.4357477301  MEMB      200             0.0000000000
     24857       200  PYPG      H11S          -41.6867722587      -34.5224861396       -7.0938333579  MEMB      200             0.0000000000
     24858       200  PYPG      C212          -39.8582942268      -33.7286281540       -6.2320940137  MEMB      200             0.0000000000
     24859       200  PYPG      H12R          -40.1618480789      -32.6980343001       -6.5150293172  MEMB      200             0.0000000000
     24860       200  PYPG      H12S          -38.7795484629      -33.8630570591       -6.4613478013  MEMB      200             0.0000000000
     24861       200  PYPG      C213          -40.0032166483      -33.9077974195       -4.6843068385  MEMB      200             0.0000000000
     24862       200  PYPG      H13R          -39.3616806121      -33.1659353525       -4.1623946455  MEMB      200             0.0000000000
     24863       200  PYPG      H13S          -39.5395633943      -34.8961332349       -4.4780571903  MEMB      200             0.0000000000
     24864       200  PYPG      C214          -41.4064403631      -33.8317718944       -4.1482324601  MEMB      200             0.0000000000
     24865       200  PYPG      H14R          -41.5861138437      -32.8470740603       -4.6303204828  MEMB      200             0.0000000000
     24866       200  PYPG      H14S          -42.0791624365      -34.6183815242       -4.5519790229  MEMB      200             0.0000000000
     24867       200  PYPG      C215          -41.5833823768      -33.9158213520       -2.5626324404  MEMB      200             0.0000000000
     24868       200  PYPG      H15R          -42.6079177234      -33.9171242091       -2.1329282254  MEMB      200             0.0000000000
     24869       200  PYPG      H15S          -40.9993191135      -32.9986156783       -2.3347615289  MEMB      200             0.0000000000
     24870       200  PYPG      C216          -40.7907298246      -35.0193594139       -1.8918063986  MEMB      200             0.0000000000
     24871       200  PYPG      H16R          -39.7067962813      -34.7973688948       -1.9924500477  MEMB      200             0.0000000000
     24872       200  PYPG      H16S          -41.0004100890      -35.9934211286       -2.3832939089  MEMB      200             0.0000000000
     24873       200  PYPG      H16T          -40.9298653405      -35.0532601020       -0.7900740506  MEMB      200             0.0000000000
     24874       200  PYPG      C33           -37.4178538856      -38.0361257134      -12.4872351639  MEMB      200             0.0000000000
     24875       200  PYPG      H3X           -36.6679590042      -38.6042620798      -11.8963038529  MEMB      200             0.0000000000
     24876       200  PYPG      H3Y           -38.0324047509      -37.4573842245      -11.7649427394  MEMB      200             0.0000000000
     24877       200  PYPG      C34           -36.6125507389      -37.1485513979      -13.5122633769  MEMB      200             0.0000000000
     24878       200  PYPG      H4X           -37.3561347800      -36.6572040693      -14.1755741805  MEMB      200             0.0000000000
     24879       200  PYPG      H4Y           -36.0136553364      -37.8158755235      -14.1682540023  MEMB      200             0.0000000000
     24880       200  PYPG      C35           -35.7769272210      -36.0754366489      -12.9669093938  MEMB      200             0.0000000000
     24881       200  PYPG      H5X           -35.1005646004      -35.7977209197      -13.8034072005  MEMB      200             0.0000000000
     24882       200  PYPG      H5Y           -35.1868832882      -36.5973302089      -12.1834577842  MEMB      200             0.0000000000
     24883       200  PYPG      C36           -36.5777952576      -34.9417880477      -12.4682561553  MEMB      200             0.0000000000
     24884       200  PYPG      H6X           -37.3110183169      -35.4274482081      -11.7894050931  MEMB      200             0.0000000000
     24885       200  PYPG      H6Y           -37.2226831890      -34.6327533761      -13.3185140355  MEMB      200             0.0000000000
     24886       200  PYPG      C37           -35.7904211715      -33.7526027278      -11.8094981467  MEMB      200             0.0000000000
     24887       200  PYPG      H7X           -34.8197946820      -33.4951931817      -12.2848352060  MEMB      200             0.0000000000
     24888       200  PYPG      H7Y           -36.4204539835      -32.8376034652      -11.8219814830  MEMB      200             0.0000000000
     24889       200  PYPG      C38           -35.2643856325      -33.9646589009      -10.3670428120  MEMB      200             0.0000000000
     24890       200  PYPG      H8X           -34.3804208573      -33.3284346993      -10.1476217271  MEMB      200             0.0000000000
     24891       200  PYPG      H8Y           -34.9815980267      -35.0300589823      -10.2282083255  MEMB      200             0.0000000000
     24892       200  PYPG      C39           -36.3498171898      -33.5790632553       -9.2739238300  MEMB      200             0.0000000000
     24893       200  PYPG      H9X           -37.0689425775      -34.4161352500       -9.1455092049  MEMB      200             0.0000000000
     24894       200  PYPG      H9Y           -37.0126855039      -32.7652918285       -9.6382079449  MEMB      200             0.0000000000
     24895       200  PYPG      C310          -35.8370017802      -33.0314446146       -7.9285394355  MEMB      200             0.0000000000
     24896       200  PYPG      H10X          -36.7134946388      -32.9069155693       -7.2572906344  MEMB      200             0.0000000000
     24897       200  PYPG      H10Y          -35.2638822644      -32.0825758630       -8.0027228032  MEMB      200             0.0000000000
     24898       200  PYPG      C311          -34.9464201731      -34.0677188461       -7.3060085511  MEMB      200             0.0000000000
     24899       200  PYPG      H11X          -33.8908151342      -33.9553555760       -7.6337178764  MEMB      200             0.0000000000
     24900       200  PYPG      H11Y          -35.2908163992      -35.0949399727       -7.5520349774  MEMB      200             0.0000000000
     24901       200  PYPG      C312          -34.8785117336      -34.0165013732       -5.7091357725  MEMB      200             0.0000000000
     24902       200  PYPG      H12X          -35.9072310549      -34.1864810687       -5.3255146230  MEMB      200             0.0000000000
     24903       200  PYPG      H12Y          -34.3484929822      -34.8660719444       -5.2278546914  MEMB      200             0.0000000000
     24904       200  PYPG      C313          -34.3890022836      -32.6899223987       -5.0352651134  MEMB      200             0.0000000000
     24905       200  PYPG      H13X          -33.4442563448      -32.4405307666       -5.5640184855  MEMB      200             0.0000000000
     24906       200  PYPG      H13Y          -35.1113290312      -31.8794472319       -5.2712629263  MEMB      200             0.0000000000
     24907       200  PYPG      C314          -34.1991785981      -32.8273713816       -3.5969680865  MEMB      200             0.0000000000
     24908       200  PYPG      H14X          -33.5233886445      -33.6518708124       -3.2841910474  MEMB      200             0.0000000000
     24909       200  PYPG      H14Y          -33.7670327282      -31.9774097028       -3.0267615188  MEMB      200             0.0000000000
     24910       200  PYPG      C315          -35.4972622679      -33.1335233772       -2.8191615525  MEMB      200             0.0000000000
     24911       200  PYPG      H15X          -36.1433907533      -32.2617618277       -3.0576377658  MEMB      200             0.0000000000
     24912       200  PYPG      H15Y          -36.0814458012      -34.0376591576       -3.0940960028  MEMB      200             0.0000000000
     24913       200  PYPG      C316          -35.3207941796      -33.0837146101       -1.3057272448  MEMB      200             0.0000000000
     24914       200  PYPG      H16X          -34.3802111589      -32.6030240479       -0.9614013927  MEMB      200             0.0000000000
     24915       200  PYPG      H16Y          -35.2174198707      -34.0830072843       -0.8313340746  MEMB      200             0.0000000000
     24916       200  PYPG      H16Z          -36.1907703533      -32.5829793545       -0.8295705108  MEMB      200             0.0000000000
